 Title Card Required
GAUSSIAN             30 MOL ORBITALS    294 PRIMITIVES        6 NUCLEI
  Na   1    (CENTRE  1)   3.81044827 -0.01721694 -0.00003163  CHARGE = 11.0
  Na   2    (CENTRE  2)  -1.89020748  3.30813830  0.00000998  CHARGE = 11.0
  Na   3    (CENTRE  3)  -1.92005179 -3.29088937  0.00002515  CHARGE = 11.0
  F    4    (CENTRE  4)   2.00931916  3.44424154 -0.00002672  CHARGE =  9.0
  F    5    (CENTRE  5)  -3.98777997  0.01793649  0.00003260  CHARGE =  9.0
  F    6    (CENTRE  6)   1.97822981 -3.46221711 -0.00001016  CHARGE =  9.0
CENTRE ASSIGNMENTS    1  1  1  1  1  1  1  1  1  1  1  1  1  1  1  1  1  1  1  1
CENTRE ASSIGNMENTS    1  1  1  1  1  1  1  1  1  1  1  1  1  1  1  1  1  1  1  1
CENTRE ASSIGNMENTS    1  1  1  1  1  1  1  1  1  1  1  1  1  1  1  1  2  2  2  2
CENTRE ASSIGNMENTS    2  2  2  2  2  2  2  2  2  2  2  2  2  2  2  2  2  2  2  2
CENTRE ASSIGNMENTS    2  2  2  2  2  2  2  2  2  2  2  2  2  2  2  2  2  2  2  2
CENTRE ASSIGNMENTS    2  2  2  2  2  2  2  2  2  2  2  2  3  3  3  3  3  3  3  3
CENTRE ASSIGNMENTS    3  3  3  3  3  3  3  3  3  3  3  3  3  3  3  3  3  3  3  3
CENTRE ASSIGNMENTS    3  3  3  3  3  3  3  3  3  3  3  3  3  3  3  3  3  3  3  3
CENTRE ASSIGNMENTS    3  3  3  3  3  3  3  3  4  4  4  4  4  4  4  4  4  4  4  4
CENTRE ASSIGNMENTS    4  4  4  4  4  4  4  4  4  4  4  4  4  4  4  4  4  4  4  4
CENTRE ASSIGNMENTS    4  4  4  4  4  4  4  4  4  4  5  5  5  5  5  5  5  5  5  5
CENTRE ASSIGNMENTS    5  5  5  5  5  5  5  5  5  5  5  5  5  5  5  5  5  5  5  5
CENTRE ASSIGNMENTS    5  5  5  5  5  5  5  5  5  5  5  5  6  6  6  6  6  6  6  6
CENTRE ASSIGNMENTS    6  6  6  6  6  6  6  6  6  6  6  6  6  6  6  6  6  6  6  6
CENTRE ASSIGNMENTS    6  6  6  6  6  6  6  6  6  6  6  6  6  6
TYPE ASSIGNMENTS      1  1  1  1  1  1  1  1  1  1  1  1  1  1  2  3  4  2  2  2
TYPE ASSIGNMENTS      2  3  3  3  3  4  4  4  4  2  2  3  3  4  4  2  3  4  2  3
TYPE ASSIGNMENTS      4  2  3  4  5  6  7  8  9 10  5  6  7  8  9 10  1  1  1  1
TYPE ASSIGNMENTS      1  1  1  1  1  1  1  1  1  1  2  3  4  2  2  2  2  3  3  3
TYPE ASSIGNMENTS      3  4  4  4  4  2  2  3  3  4  4  2  3  4  2  3  4  2  3  4
TYPE ASSIGNMENTS      5  6  7  8  9 10  5  6  7  8  9 10  1  1  1  1  1  1  1  1
TYPE ASSIGNMENTS      1  1  1  1  1  1  2  3  4  2  2  2  2  3  3  3  3  4  4  4
TYPE ASSIGNMENTS      4  2  2  3  3  4  4  2  3  4  2  3  4  2  3  4  5  6  7  8
TYPE ASSIGNMENTS      9 10  5  6  7  8  9 10  1  1  1  1  1  1  1  1  1  2  2  2
TYPE ASSIGNMENTS      3  3  3  4  4  4  1  2  3  4  1  2  3  4  1  2  3  4  5  6
TYPE ASSIGNMENTS      7  8  9 10  5  6  7  8  9 10  1  1  1  1  1  1  1  1  1  2
TYPE ASSIGNMENTS      2  2  3  3  3  4  4  4  1  2  3  4  1  2  3  4  1  2  3  4
TYPE ASSIGNMENTS      5  6  7  8  9 10  5  6  7  8  9 10  1  1  1  1  1  1  1  1
TYPE ASSIGNMENTS      1  2  2  2  3  3  3  4  4  4  1  2  3  4  1  2  3  4  1  2
TYPE ASSIGNMENTS      3  4  5  6  7  8  9 10  5  6  7  8  9 10
EXPONENTS  0.3616640D+05 0.5372580D+04 0.1213210D+04 0.3396230D+03 0.1095530D+03
EXPONENTS  0.3877730D+02 0.3877730D+02 0.1457590D+02 0.5269930D+01 0.1827770D+01
EXPONENTS  0.6199480D+00 0.5724000D-01 0.2404800D-01 0.7600000D-02 0.7600000D-02
EXPONENTS  0.7600000D-02 0.7600000D-02 0.1446450D+03 0.3390740D+02 0.1062850D+02
EXPONENTS  0.3823890D+01 0.1446450D+03 0.3390740D+02 0.1062850D+02 0.3823890D+01
EXPONENTS  0.1446450D+03 0.3390740D+02 0.1062850D+02 0.3823890D+01 0.1444290D+01
EXPONENTS  0.5526210D+00 0.1444290D+01 0.5526210D+00 0.1444290D+01 0.5526210D+00
EXPONENTS  0.1887200D+00 0.1887200D+00 0.1887200D+00 0.4650100D-01 0.4650100D-01
EXPONENTS  0.4650100D-01 0.1628500D-01 0.1628500D-01 0.1628500D-01 0.3500000D+00
EXPONENTS  0.3500000D+00 0.3500000D+00 0.3500000D+00 0.3500000D+00 0.3500000D+00
EXPONENTS  0.8750000D-01 0.8750000D-01 0.8750000D-01 0.8750000D-01 0.8750000D-01
EXPONENTS  0.8750000D-01 0.3616640D+05 0.5372580D+04 0.1213210D+04 0.3396230D+03
EXPONENTS  0.1095530D+03 0.3877730D+02 0.3877730D+02 0.1457590D+02 0.5269930D+01
EXPONENTS  0.1827770D+01 0.6199480D+00 0.5724000D-01 0.2404800D-01 0.7600000D-02
EXPONENTS  0.7600000D-02 0.7600000D-02 0.7600000D-02 0.1446450D+03 0.3390740D+02
EXPONENTS  0.1062850D+02 0.3823890D+01 0.1446450D+03 0.3390740D+02 0.1062850D+02
EXPONENTS  0.3823890D+01 0.1446450D+03 0.3390740D+02 0.1062850D+02 0.3823890D+01
EXPONENTS  0.1444290D+01 0.5526210D+00 0.1444290D+01 0.5526210D+00 0.1444290D+01
EXPONENTS  0.5526210D+00 0.1887200D+00 0.1887200D+00 0.1887200D+00 0.4650100D-01
EXPONENTS  0.4650100D-01 0.4650100D-01 0.1628500D-01 0.1628500D-01 0.1628500D-01
EXPONENTS  0.3500000D+00 0.3500000D+00 0.3500000D+00 0.3500000D+00 0.3500000D+00
EXPONENTS  0.3500000D+00 0.8750000D-01 0.8750000D-01 0.8750000D-01 0.8750000D-01
EXPONENTS  0.8750000D-01 0.8750000D-01 0.3616640D+05 0.5372580D+04 0.1213210D+04
EXPONENTS  0.3396230D+03 0.1095530D+03 0.3877730D+02 0.3877730D+02 0.1457590D+02
EXPONENTS  0.5269930D+01 0.1827770D+01 0.6199480D+00 0.5724000D-01 0.2404800D-01
EXPONENTS  0.7600000D-02 0.7600000D-02 0.7600000D-02 0.7600000D-02 0.1446450D+03
EXPONENTS  0.3390740D+02 0.1062850D+02 0.3823890D+01 0.1446450D+03 0.3390740D+02
EXPONENTS  0.1062850D+02 0.3823890D+01 0.1446450D+03 0.3390740D+02 0.1062850D+02
EXPONENTS  0.3823890D+01 0.1444290D+01 0.5526210D+00 0.1444290D+01 0.5526210D+00
EXPONENTS  0.1444290D+01 0.5526210D+00 0.1887200D+00 0.1887200D+00 0.1887200D+00
EXPONENTS  0.4650100D-01 0.4650100D-01 0.4650100D-01 0.1628500D-01 0.1628500D-01
EXPONENTS  0.1628500D-01 0.3500000D+00 0.3500000D+00 0.3500000D+00 0.3500000D+00
EXPONENTS  0.3500000D+00 0.3500000D+00 0.8750000D-01 0.8750000D-01 0.8750000D-01
EXPONENTS  0.8750000D-01 0.8750000D-01 0.8750000D-01 0.1142710D+05 0.1722350D+04
EXPONENTS  0.3957460D+03 0.1151390D+03 0.3360260D+02 0.4919010D+01 0.5544410D+02
EXPONENTS  0.1263230D+02 0.3717560D+01 0.5544410D+02 0.1263230D+02 0.3717560D+01
EXPONENTS  0.5544410D+02 0.1263230D+02 0.3717560D+01 0.5544410D+02 0.1263230D+02
EXPONENTS  0.3717560D+01 0.1165450D+01 0.1165450D+01 0.1165450D+01 0.1165450D+01
EXPONENTS  0.3218920D+00 0.3218920D+00 0.3218920D+00 0.3218920D+00 0.1076000D+00
EXPONENTS  0.1076000D+00 0.1076000D+00 0.1076000D+00 0.3500000D+01 0.3500000D+01
EXPONENTS  0.3500000D+01 0.3500000D+01 0.3500000D+01 0.3500000D+01 0.8750000D+00
EXPONENTS  0.8750000D+00 0.8750000D+00 0.8750000D+00 0.8750000D+00 0.8750000D+00
EXPONENTS  0.1142710D+05 0.1722350D+04 0.3957460D+03 0.1151390D+03 0.3360260D+02
EXPONENTS  0.4919010D+01 0.5544410D+02 0.1263230D+02 0.3717560D+01 0.5544410D+02
EXPONENTS  0.1263230D+02 0.3717560D+01 0.5544410D+02 0.1263230D+02 0.3717560D+01
EXPONENTS  0.5544410D+02 0.1263230D+02 0.3717560D+01 0.1165450D+01 0.1165450D+01
EXPONENTS  0.1165450D+01 0.1165450D+01 0.3218920D+00 0.3218920D+00 0.3218920D+00
EXPONENTS  0.3218920D+00 0.1076000D+00 0.1076000D+00 0.1076000D+00 0.1076000D+00
EXPONENTS  0.3500000D+01 0.3500000D+01 0.3500000D+01 0.3500000D+01 0.3500000D+01
EXPONENTS  0.3500000D+01 0.8750000D+00 0.8750000D+00 0.8750000D+00 0.8750000D+00
EXPONENTS  0.8750000D+00 0.8750000D+00 0.1142710D+05 0.1722350D+04 0.3957460D+03
EXPONENTS  0.1151390D+03 0.3360260D+02 0.4919010D+01 0.5544410D+02 0.1263230D+02
EXPONENTS  0.3717560D+01 0.5544410D+02 0.1263230D+02 0.3717560D+01 0.5544410D+02
EXPONENTS  0.1263230D+02 0.3717560D+01 0.5544410D+02 0.1263230D+02 0.3717560D+01
EXPONENTS  0.1165450D+01 0.1165450D+01 0.1165450D+01 0.1165450D+01 0.3218920D+00
EXPONENTS  0.3218920D+00 0.3218920D+00 0.3218920D+00 0.1076000D+00 0.1076000D+00
EXPONENTS  0.1076000D+00 0.1076000D+00 0.3500000D+01 0.3500000D+01 0.3500000D+01
EXPONENTS  0.3500000D+01 0.3500000D+01 0.3500000D+01 0.8750000D+00 0.8750000D+00
EXPONENTS  0.8750000D+00 0.8750000D+00 0.8750000D+00 0.8750000D+00
MO    1     MO 0.0        OCC NO =    2.0000000  ORB. ENERGY =  -38.399911
  0.72225733D+00  0.13515989D+01  0.23110878D+01  0.35845997D+01  0.46503861D+01
  0.15750374D+01  0.28143222D+01  0.20756777D+01  0.18982771D+00  0.65618183D-02
 -0.18109626D-02  0.23636646D-03 -0.15638291D-04 -0.43771285D-04  0.10012614D-05
 -0.16243846D-07 -0.89442436D-11  0.81422551D-03  0.95266484D-03  0.86698178D-03
  0.52998906D-03 -0.24163639D-05 -0.28272081D-05 -0.25729278D-05 -0.15728400D-05
 -0.54703490D-08 -0.64004494D-08 -0.58247904D-08 -0.35607152D-08  0.47123368D-05
  0.94471176D-06 -0.62485877D-06 -0.12526936D-06 -0.98370447D-10 -0.19720941D-10
 -0.65064713D-05  0.87212518D-07  0.49864793D-10 -0.60244646D-04  0.65980306D-06
  0.50922537D-09  0.64700572D-05 -0.64772144D-07 -0.54096289D-10 -0.18298376D-04
  0.75812362D-05  0.10717140D-04  0.55319715D-06  0.50418907D-09  0.86430688D-11
  0.10224522D-04  0.29056202D-05 -0.13130142D-04 -0.33469630D-06 -0.39798286D-09
 -0.72036650D-10 -0.84444864D-01 -0.15802620D+00 -0.27020770D+00 -0.41910414D+00
 -0.54371372D+00 -0.18415018D+00 -0.32901651D+00 -0.24266312D+00 -0.22192359D-01
 -0.80785701D-03  0.24978291D-03 -0.80606836D-04 -0.21947265D-05  0.23581900D-04
  0.77225863D-06 -0.42320995D-06 -0.54518175D-11 -0.36716401D-04 -0.42959136D-04
 -0.39095374D-04 -0.23899142D-04 -0.27614126D-04 -0.32309240D-04 -0.29403334D-04
 -0.17974363D-04  0.24703644D-09  0.28903900D-09  0.26304272D-09  0.16079895D-09
  0.44077197D-04  0.88364324D-05 -0.30681596D-04 -0.61509322D-05 -0.34453315D-09
 -0.69070724D-10 -0.10377988D-04  0.14102593D-04  0.83502490D-10 -0.28693140D-04
  0.19565277D-04  0.21102867D-09  0.27150883D-05 -0.19396565D-05 -0.20253332D-10
 -0.16013001D-06  0.99660993D-07  0.60469021D-07 -0.25542472D-04  0.66731016D-10
  0.21835282D-09 -0.33583692D-05 -0.97605336D-06  0.43344226D-05  0.16680552D-04
  0.93261652D-10 -0.12871590D-09 -0.64436262D-01 -0.12058303D+00 -0.20618393D+00
 -0.31980043D+00 -0.41488467D+00 -0.14051712D+00 -0.25105241D+00 -0.18516141D+00
 -0.16933634D-01 -0.62506486D-03  0.19866772D-03 -0.72750819D-04 -0.25256973D-05
  0.21909870D-04  0.76421852D-06  0.37270158D-06 -0.71642434D-11 -0.47740838D-04
 -0.55858012D-04 -0.50834120D-04 -0.31075079D-04  0.10976496D-04  0.12842784D-04
  0.11687698D-04  0.71447318D-05  0.31749728D-09  0.37148001D-09  0.33806895D-09
  0.20666275D-09  0.44199557D-04  0.88609627D-05  0.28846435D-04  0.57830261D-05
 -0.48061142D-09 -0.96351189D-10 -0.10252214D-04 -0.13471726D-04  0.14286862D-09
 -0.28060894D-04 -0.17150818D-04  0.28918667D-09  0.26446172D-05  0.16937648D-05
 -0.27947904D-10  0.37315694D-06 -0.69738105D-06  0.32422411D-06  0.24664284D-04
 -0.55342349D-10 -0.20611338D-09 -0.35341360D-05 -0.36722861D-06  0.39013646D-05
 -0.16324922D-04  0.16466316D-09  0.16859808D-09  0.49342972D-06  0.91078168D-06
  0.14986455D-05  0.20330804D-05  0.20381437D-05  0.24523859D-06  0.11493465D-05
  0.30462022D-05 -0.44665862D-08  0.73013326D-04  0.76959147D-04  0.57638416D-04
 -0.11147365D-03 -0.11749797D-03 -0.87999894D-04 -0.27268997D-09 -0.28742682D-09
 -0.21526781D-09  0.73525497D-05 -0.41701093D-04  0.65556203D-04  0.14254200D-09
 -0.23942650D-04 -0.11742484D-04  0.17215114D-04  0.65507372D-10 -0.34321500D-04
 -0.10831951D-04 -0.43800035D-05  0.91446910D-10  0.11730114D-04 -0.10121126D-03
  0.89481150D-04  0.12386642D-03  0.10962006D-08  0.87147280D-10  0.36122566D-05
  0.13169836D-04 -0.16782092D-04 -0.10271528D-04 -0.36404276D-09 -0.90828730D-10
 -0.58548053D-07 -0.10806908D-06 -0.17782224D-06 -0.24123578D-06 -0.24183657D-06
 -0.29098859D-07 -0.10341359D-05 -0.27408507D-05  0.40188553D-08  0.19389501D-04
  0.20437358D-04  0.15306523D-04 -0.30349749D-05 -0.31989925D-05 -0.23958798D-05
 -0.55642283D-10 -0.58649331D-10 -0.43925312D-10  0.38348387D-05 -0.18084562D-04
  0.17866502D-05  0.60669466D-10 -0.23664466D-04  0.78175978D-05  0.43369559D-06
 -0.73735553D-11  0.22121099D-04  0.25504688D-04  0.60691719D-07 -0.26349615D-09
 -0.10267736D-03  0.49173625D-05  0.97759993D-04  0.49118889D-05  0.32964728D-08
  0.38833069D-09  0.28818238D-04  0.11292159D-05 -0.29947454D-04 -0.58037624D-06
 -0.96442941D-09 -0.13757336D-09  0.50753905D-06  0.93682495D-06  0.15414984D-05
  0.20912152D-05  0.20964233D-05  0.25225104D-06  0.12074415D-05  0.32001759D-05
 -0.46923549D-08  0.70955843D-04  0.74790473D-04  0.56014192D-04  0.11027125D-03
  0.11623058D-03  0.87050686D-04 -0.77407498D-09 -0.81590792D-09 -0.61107278D-09
  0.74358496D-05 -0.40595031D-04 -0.64750864D-04  0.43828500D-09 -0.23957202D-04
 -0.11273488D-04 -0.17233043D-04  0.14223380D-09 -0.35739273D-04 -0.10433619D-04
  0.42095955D-05  0.64917091D-10  0.79812044D-05 -0.97318796D-04  0.89337592D-04
 -0.12751210D-03  0.17287453D-08  0.17519201D-08  0.38853916D-05  0.12578738D-04
 -0.16464129D-04  0.11007043D-04 -0.40489419D-09 -0.20131730D-09
MO    2     MO 0.0        OCC NO =    2.0000000  ORB. ENERGY =  -38.399901
  0.51995428D-01  0.97301832D-01  0.16637560D+00  0.25805595D+00  0.33478209D+00
  0.11338721D+00  0.20262064D+00  0.14944100D+00  0.13666882D-01  0.44785533D-03
 -0.10741543D-03 -0.14958369D-04 -0.35485856D-05  0.79874015D-05 -0.30745170D-06
  0.56323021D-06  0.14483391D-11  0.11233858D-03  0.13143903D-03  0.11961735D-03
  0.73122516D-04 -0.56040588D-04 -0.65568933D-04 -0.59671637D-04 -0.36477485D-04
 -0.69569415D-09 -0.81398009D-09 -0.74077040D-09 -0.45283559D-09 -0.28483325D-04
 -0.57102310D-05  0.28211933D-04  0.56558234D-05  0.15776451D-09  0.31628042D-10
  0.95646858D-05 -0.24990604D-05 -0.65276694D-10  0.10167140D-04 -0.18578269D-04
 -0.43050964D-10 -0.89916144D-06  0.17038962D-05  0.35169333D-11  0.39780216D-05
 -0.55434685D-05  0.15654469D-05 -0.15630671D-04 -0.68117569D-11  0.17249300D-09
 -0.37621107D-05  0.30181270D-05  0.74398373D-06  0.12883035D-04  0.45853344D-10
 -0.12724774D-09  0.66723731D+00  0.12486369D+01  0.21350340D+01  0.33115326D+01
  0.42961296D+01  0.14550544D+01  0.25999286D+01  0.19175536D+01  0.17536673D+00
  0.60684709D-02 -0.16791026D-02  0.22688891D-03 -0.13808129D-04 -0.43404963D-04
 -0.33473459D-06  0.99136390D-06  0.30415972D-12 -0.38328158D-03 -0.44844933D-03
 -0.40811562D-03 -0.24948253D-03  0.63057297D-03  0.73778663D-03  0.67142980D-03
  0.41044744D-03  0.34934381D-08  0.40874126D-08  0.37197891D-08  0.22739203D-08
  0.27830864D-05  0.55794280D-06  0.15469593D-04  0.31012865D-05 -0.11399555D-09
 -0.22853403D-10  0.35345985D-05 -0.79798964D-05 -0.23439443D-10  0.23755334D-04
 -0.54980175D-04 -0.89368200D-10 -0.26156872D-05  0.58084993D-05  0.10914914D-10
  0.43952296D-05 -0.14086782D-04  0.96915528D-05  0.20393170D-04  0.43027325D-10
 -0.60527004D-10  0.20955509D-05  0.10483999D-04 -0.12579550D-04 -0.51745333D-05
 -0.24520407D-09 -0.57245184D-10 -0.29159927D+00 -0.54568534D+00 -0.93306286D+00
 -0.14472219D+01 -0.18775153D+01 -0.63589490D+00 -0.11362061D+01 -0.83799847D+00
 -0.76637779D-01 -0.26911034D-02  0.77033640D-03 -0.15005427D-03  0.21794757D-05
  0.36700351D-04  0.22151142D-06  0.10945004D-05 -0.40469249D-11  0.14990550D-03
  0.17539330D-03  0.15961836D-03  0.97575271D-04  0.18631992D-03  0.21799911D-03
  0.19839218D-03  0.12127785D-03 -0.22810616D-08 -0.26689008D-08 -0.24288588D-08
 -0.14847701D-08  0.10289646D-04  0.20628299D-05  0.53434478D-04  0.10712345D-04
 -0.22209835D-09 -0.44525450D-10 -0.85985295D-05 -0.17885466D-04  0.13922486D-09
 -0.14526770D-04 -0.48513414D-04  0.24471488D-09  0.15534826D-05  0.48301645D-05
 -0.25901954D-10 -0.10263513D-04  0.13233127D-04 -0.29696135D-05  0.21309561D-04
  0.74158201D-10 -0.25016297D-09  0.33325284D-05 -0.11518106D-04  0.81855778D-05
 -0.95428037D-05  0.11148820D-09  0.17618526D-09  0.53896023D-06  0.99482274D-06
  0.16369308D-05  0.22206800D-05  0.22262105D-05  0.26786762D-06  0.15355469D-05
  0.40697792D-05 -0.59674370D-08 -0.10721783D-03 -0.11301215D-03 -0.84640248D-04
 -0.32242059D-05 -0.33984500D-05 -0.25452631D-05  0.10169806D-08  0.10719407D-08
  0.80282810D-09  0.65668421D-05  0.61652775D-04  0.10848186D-05 -0.58432296D-09
 -0.17945077D-04  0.18356492D-04  0.30304896D-05 -0.17659555D-09 -0.43090735D-04
  0.37890312D-05 -0.43637758D-05 -0.26003626D-10 -0.10681670D-03  0.42585238D-04
  0.64231459D-04  0.17140676D-04  0.30926934D-08  0.12591569D-09  0.11892060D-04
 -0.34375952D-05 -0.84544645D-05 -0.63203136D-05 -0.34903009D-09 -0.13524759D-10
  0.29780142D-06  0.54968736D-06  0.90448293D-06  0.12270324D-05  0.12300883D-05
  0.14800973D-06  0.57862594D-06  0.15335773D-05 -0.22486541D-08  0.39936595D-04
  0.42094868D-04  0.31526876D-04  0.14158586D-03  0.14923751D-03  0.11177117D-03
 -0.57810744D-09 -0.60934980D-09 -0.45637145D-09  0.50393544D-05 -0.24719362D-04
 -0.82000336D-04  0.33810488D-09 -0.17828201D-04 -0.46392611D-05 -0.22327640D-04
  0.10313024D-09 -0.18405140D-04  0.89249143D-05 -0.85700160D-05 -0.73808641D-10
 -0.25477232D-04 -0.42319464D-04  0.67796696D-04 -0.18954127D-03  0.18397568D-08
  0.20084153D-08  0.76269473D-05  0.65666110D-05 -0.14193558D-04  0.15892905D-04
 -0.36934653D-09 -0.24715361D-09 -0.13382059D-06 -0.24700852D-06 -0.40644010D-06
 -0.55138152D-06 -0.55275471D-06 -0.66509923D-07 -0.11256917D-05 -0.29835082D-05
  0.43746593D-08  0.40155299D-04  0.42325391D-04  0.31699527D-04  0.32119899D-04
  0.33855739D-04  0.25356195D-04 -0.35783346D-09 -0.37717167D-09 -0.28248205D-09
  0.22786876D-05 -0.20254117D-04 -0.23863169D-04  0.17292599D-09 -0.17611460D-04
 -0.11211006D-04  0.34898097D-05  0.13096548D-09  0.25788502D-04 -0.13412888D-04
  0.17308608D-04  0.46365187D-10  0.19076615D-04 -0.93362775D-04  0.74286160D-04
  0.57158591D-04  0.82731988D-09  0.20271991D-09  0.32279696D-05  0.21264713D-04
 -0.24492683D-04 -0.19381277D-04 -0.44994729D-09 -0.23406923D-10
MO    3     MO 0.0        OCC NO =    2.0000000  ORB. ENERGY =  -38.399898
  0.92620255D-01  0.17332525D+00  0.29636741D+00  0.45967902D+00  0.59635247D+00
  0.20197838D+00  0.36094368D+00  0.26621072D+00  0.24345866D-01  0.77993589D-03
 -0.17464905D-03 -0.49898569D-04 -0.80832954D-05  0.22327810D-04 -0.83113569D-06
 -0.22018260D-06  0.79449684D-11  0.23988563D-03  0.28067237D-03  0.25542858D-03
  0.15614440D-03  0.21069562D-04  0.24651931D-04  0.22434726D-04  0.13714428D-04
 -0.18143293D-08 -0.21228120D-08 -0.19318855D-08 -0.11809685D-08 -0.72055149D-04
 -0.14445348D-04 -0.10872422D-04 -0.21796628D-05  0.57997139D-09  0.11627051D-09
  0.24362296D-04  0.86980497D-06 -0.17831802D-09  0.28898567D-04  0.72573422D-05
 -0.25547451D-09 -0.26161112D-05 -0.66590983D-06  0.22558437D-10  0.11141736D-04
 -0.14507970D-04  0.33662344D-05  0.59646385D-05 -0.14919323D-09  0.32124100D-10
 -0.10138897D-04  0.75849543D-05  0.25539425D-05 -0.49509598D-05  0.22067438D-09
  0.21285976D-10  0.28390337D+00  0.53128360D+00  0.90843745D+00  0.14090268D+01
  0.18279639D+01  0.61911235D+00  0.11062840D+01  0.81592964D+00  0.74619511D-01
  0.25274106D-02 -0.66328178D-03  0.25244735D-04 -0.11273600D-04  0.63670781D-05
 -0.85692660D-07 -0.52687481D-06  0.20567246D-11 -0.18650959D-03 -0.21822103D-03
 -0.19859414D-03 -0.12140131D-03  0.39350759D-03  0.46041403D-03  0.41900421D-03
  0.25613877D-03  0.15036726D-08  0.17593357D-08  0.16011004D-08  0.97875838D-09
  0.14859486D-04  0.29789745D-05 -0.59940690D-04 -0.12016686D-04 -0.71494656D-10
 -0.14332983D-10 -0.79870542D-05  0.16978069D-04  0.59062622D-10  0.60652255D-05
  0.11741845D-04 -0.73470324D-10 -0.70469177D-06 -0.81834638D-06  0.71622588D-11
 -0.10554683D-04  0.46578343D-05  0.58968489D-05 -0.75267639D-05  0.29790369D-09
  0.68062910D-10  0.73564868D-05 -0.57688603D-05 -0.15876265D-05  0.71556008D-05
 -0.16299668D-09 -0.46557762D-10  0.66614977D+00  0.12466018D+01  0.21315541D+01
  0.33061351D+01  0.42891273D+01  0.14526828D+01  0.25957183D+01  0.19144483D+01
  0.17508274D+00  0.60194724D-02 -0.16397661D-02  0.17551531D-03 -0.17647532D-04
 -0.25567213D-04 -0.30612064D-06 -0.30272403D-06  0.31602062D-11 -0.40466207D-03
 -0.47346505D-03 -0.43088141D-03 -0.26339935D-03 -0.71619293D-03 -0.83796420D-03
 -0.76259736D-03 -0.46617849D-03  0.66064437D-08  0.77297095D-08  0.70344963D-08
  0.43002127D-08  0.12306903D-04  0.24672422D-05  0.32347566D-04  0.64849196D-05
 -0.26456324D-09 -0.53038654D-10 -0.32556680D-05 -0.66160332D-05  0.55064982D-10
  0.21420545D-04  0.29374882D-04 -0.25343339D-09 -0.23806567D-05 -0.34068632D-05
  0.28786137D-10 -0.47104633D-05 -0.62344527D-05  0.10944916D-04 -0.89472828D-05
  0.28570831D-09  0.15291076D-09  0.68170972D-05  0.30486100D-05 -0.98657071D-05
 -0.14625444D-05 -0.27995077D-09 -0.46668042D-10  0.34777294D-06  0.64192571D-06
  0.10562565D-05  0.14329302D-05  0.14364989D-05  0.17284598D-06 -0.80498640D-07
 -0.21335180D-06  0.31283354D-09 -0.58860608D-04 -0.62041581D-04 -0.46465932D-04
 -0.44791324D-04 -0.47211958D-04 -0.35359312D-04  0.80011381D-09  0.84335395D-09
  0.63162844D-09  0.98585606D-05  0.38016055D-04  0.32672380D-04 -0.54967106D-09
 -0.43271068D-04  0.36313489D-05 -0.26310798D-05  0.38469454D-10 -0.61466054D-05
 -0.15159799D-04 -0.29364890D-04  0.14248920D-09 -0.86169050D-04 -0.84829795D-04
  0.17099885D-03 -0.74471056D-04  0.47897193D-08  0.21097237D-08  0.17277538D-04
  0.26357993D-04 -0.43635531D-04  0.22527363D-04 -0.11397925D-08 -0.59344413D-09
  0.75029545D-06  0.13849092D-05  0.22787985D-05  0.30914454D-05  0.30991445D-05
  0.37290295D-06  0.15148559D-05  0.40149401D-05 -0.58870276D-08  0.97397818D-04
  0.10266144D-03  0.76888102D-04 -0.57010521D-04 -0.60091511D-04 -0.45005430D-04
 -0.51134913D-09 -0.53898370D-09 -0.40367089D-09  0.12416178D-04 -0.60062624D-04
  0.33053568D-04  0.30564296D-09 -0.43500711D-04 -0.11725207D-04  0.89417583D-05
  0.10380275D-09 -0.47280256D-04  0.21176072D-04  0.33000520D-05 -0.22187456D-09
 -0.56036712D-04 -0.10913041D-03  0.16516712D-03  0.75273277D-04  0.31619177D-08
  0.66416221D-09  0.17411574D-04  0.16680281D-04 -0.34091855D-04 -0.64111215D-05
 -0.76896210D-09 -0.17429972D-09  0.61592964D-06  0.11368943D-05  0.18707024D-05
  0.25378173D-05  0.25441377D-05  0.30612204D-06  0.97742960D-06  0.25905576D-05
 -0.37984835D-08 -0.11713566D-03 -0.12346597D-03 -0.92469616D-04  0.34188684D-04
  0.36036325D-04  0.26989342D-04  0.10885678D-08  0.11473967D-08  0.85934071D-09
  0.11576440D-04  0.70317935D-04 -0.24157144D-04 -0.66496442D-09 -0.43399931D-04
  0.15453030D-04 -0.65448165D-07 -0.98783109D-10 -0.33623084D-04 -0.80152411D-05
  0.24324021D-04 -0.25815104D-10 -0.13558065D-03 -0.31344069D-04  0.16692472D-03
  0.45884503D-04  0.52880156D-08  0.27175941D-09  0.20508926D-04  0.16715821D-04
 -0.37224747D-04 -0.12209204D-04 -0.98934912D-09 -0.78864069D-10
MO    4     MO 0.0        OCC NO =    2.0000000  ORB. ENERGY =  -24.525017
  0.12922434D-06  0.24182443D-06  0.41349360D-06  0.64134693D-06  0.83203455D-06
  0.28180145D-06  0.10122390D-04  0.74656760D-05  0.68276119D-06 -0.10182937D-05
 -0.24585505D-04 -0.24214766D-03  0.22895122D-04 -0.52373733D-05  0.11283641D-05
 -0.79010930D-06 -0.66313515D-11  0.81173575D-04  0.94975176D-04  0.86433070D-04
  0.52836844D-04  0.92374938D-04  0.10808106D-03  0.98360205D-04  0.60127944D-04
 -0.78067009D-09 -0.91340414D-09 -0.83125220D-09 -0.50814744D-09 -0.31747459D-04
 -0.63646124D-05 -0.10035435D-03 -0.20118667D-04  0.45189765D-09  0.90594760D-10
  0.44603151D-04  0.84477194D-05 -0.34442894D-09  0.27056061D-04 -0.43280224D-04
 -0.78264207D-10 -0.47592024D-05  0.45584814D-05  0.24088814D-10 -0.11239903D-04
  0.39308640D-04 -0.28068737D-04 -0.11333099D-03  0.36036222D-10  0.49278397D-09
  0.63989544D-05 -0.16266228D-04  0.98672741D-05  0.19520004D-04 -0.79305415D-11
 -0.43790324D-10  0.64410330D-07  0.12053450D-06  0.20610096D-06  0.31967174D-06
  0.41471771D-06  0.14046058D-06  0.43667747D-05  0.32206748D-05  0.29454155D-06
 -0.83374045D-07 -0.11504830D-04 -0.98056886D-04  0.81493899D-05 -0.17375166D-05
 -0.11662122D-05 -0.15536281D-06  0.10920861D-10  0.93963096D-04  0.10993924D-03
  0.10005126D-03  0.61161695D-04  0.94848036D-04  0.11097465D-03  0.10099354D-03
  0.61737714D-04 -0.95495402D-09 -0.11173208D-08 -0.10168285D-08 -0.62159092D-09
 -0.11429262D-03 -0.22912959D-04 -0.81033378D-04 -0.16245270D-04  0.11381440D-08
  0.22817088D-09  0.10866664D-05  0.22297505D-04 -0.30510771D-10 -0.57745499D-04
 -0.19657950D-04  0.56505517D-09  0.64247419D-05  0.14473012D-05 -0.61338987D-10
  0.79803868D-04 -0.67288592D-04 -0.12515276D-04 -0.61358878D-04 -0.16966607D-08
  0.66666990D-09 -0.16010708D-04  0.11933366D-04  0.40773429D-05  0.64842447D-05
  0.33907348D-09 -0.98033460D-10 -0.10224166D-06 -0.19133029D-06 -0.32715409D-06
 -0.50743052D-06 -0.65830163D-06 -0.22295992D-06 -0.10511649D-04 -0.77527706D-05
 -0.70901695D-06  0.23641179D-05  0.22264387D-04  0.27394434D-03 -0.29957174D-04
  0.73109213D-05  0.40889500D-06  0.13045905D-05 -0.80704296D-11  0.71556491D-04
  0.83722939D-04  0.76192864D-04  0.46576970D-04  0.51378812D-04  0.60114535D-04
  0.54707810D-04  0.33443079D-04 -0.89894063D-09 -0.10517837D-08 -0.95718587D-09
 -0.58513114D-09 -0.49691973D-04 -0.99620619D-05 -0.78752763D-05 -0.15788061D-05
  0.51988928D-09  0.10422547D-09  0.26891700D-04  0.39416173D-04 -0.39277533D-09
  0.91093879D-07  0.33350338D-04 -0.13907287D-09 -0.12135176D-05 -0.55694579D-05
  0.30705789D-10 -0.68491205D-05 -0.20793789D-04  0.27642909D-04  0.64982540D-04
  0.40987181D-09 -0.24318112D-09  0.88158983D-05  0.20487744D-05 -0.10864673D-04
 -0.27487627D-04 -0.28133429D-09  0.15323733D-09  0.65098272D+00  0.12015959D+01
  0.19771657D+01  0.26822467D+01  0.26889268D+01  0.32354371D+00  0.65579032D+00
  0.17380920D+01 -0.25485301D-02 -0.38665131D-03 -0.40754691D-03 -0.30523153D-03
 -0.64286983D-03 -0.67761211D-03 -0.50749638D-03  0.66611103D-08  0.70210933D-08
  0.52584354D-08  0.81692255D-02 -0.74925891D-04 -0.14359393D-03  0.11564460D-08
 -0.19778284D-02  0.64696607D-04  0.12272552D-03 -0.10555174D-08  0.10028011D-02
 -0.21668535D-04 -0.95682877D-04  0.60800809D-09  0.22146823D-03  0.14185842D-05
 -0.22288682D-03 -0.18686055D-03 -0.75175155D-08  0.23931714D-09 -0.45051502D-04
  0.98525054D-06  0.44066251D-04  0.20311907D-04  0.15423513D-08  0.58597637D-10
 -0.40886622D+00 -0.75469282D+00 -0.12418091D+01 -0.16846531D+01 -0.16888487D+01
 -0.20320984D+00 -0.41188392D+00 -0.10916479D+01  0.16006619D-02 -0.45871889D-03
 -0.48350920D-03 -0.36212336D-03 -0.23769817D-04 -0.25054396D-04 -0.18764446D-04
  0.28235248D-08  0.29761151D-08  0.22289561D-08 -0.51384266D-02 -0.11284835D-03
  0.20285252D-04  0.79036465D-09  0.12458562D-02  0.91794678D-04 -0.15852431D-04
 -0.60072938D-09 -0.62687018D-03 -0.53570153D-04  0.76388845D-04  0.15089805D-09
 -0.13116650D-04 -0.15394088D-03  0.16705753D-03 -0.25751170D-03  0.33968250D-08
  0.34371710D-08  0.94261811D-05  0.26614163D-04 -0.36040345D-04  0.77635136D-04
 -0.91919545D-09 -0.86831891D-09 -0.11281968D+00 -0.20824466D+00 -0.34265612D+00
 -0.46485140D+00 -0.46600909D+00 -0.56072302D-01 -0.11365155D+00 -0.30121952D+00
  0.44167225D-03  0.28935756D-04  0.30499516D-04  0.22842558D-04 -0.12273778D-03
 -0.12937083D-03 -0.96892053D-04 -0.22827239D-09 -0.24060880D-09 -0.18020353D-09
 -0.14212317D-02  0.41692819D-04 -0.17859293D-04 -0.35649148D-09  0.34542332D-03
 -0.32180987D-04  0.13271110D-04  0.28763407D-09 -0.17172778D-03  0.98039133D-04
  0.41349822D-04 -0.97645658D-09  0.11736208D-03 -0.17530745D-03  0.57945364D-04
 -0.20408111D-03 -0.77150408D-09  0.26379775D-08 -0.39106652D-04  0.52754189D-04
 -0.13647537D-04  0.56035009D-04  0.38695796D-09 -0.73563315D-09
MO    5     MO 0.0        OCC NO =    2.0000000  ORB. ENERGY =  -24.525016
  0.45357488D-07  0.84879899D-07  0.14513544D-06  0.22511151D-06  0.29204249D-06
  0.98911756D-07  0.64053271D-05  0.47241905D-05  0.43204312D-06 -0.21344178D-05
 -0.11828082D-04 -0.17885253D-03  0.21530513D-04 -0.54476419D-05  0.89959110D-06
  0.78092289D-06 -0.84668227D-11  0.46788494D-04  0.54743744D-04  0.49820070D-04
  0.30455187D-04 -0.92947107D-04 -0.10875051D-03 -0.98969447D-04 -0.60500376D-04
 -0.62555520D-10 -0.73191572D-10 -0.66608692D-10 -0.40718131D-10 -0.18603781D-04
 -0.37296168D-05  0.10058677D-03  0.20165261D-04 -0.13606359D-09 -0.27277522D-10
  0.29671666D-04 -0.87881408D-05 -0.18506773D-09  0.18081956D-04  0.43079474D-04
 -0.21786160D-09 -0.35695548D-05 -0.45210975D-05  0.36307924D-10 -0.61330510D-05
  0.22178294D-04 -0.16045243D-04  0.11405749D-03 -0.40584372D-09 -0.99992311D-09
  0.57729215D-05 -0.12722006D-04  0.69490847D-05 -0.19891271D-04  0.53261714D-10
  0.26606832D-09 -0.18350793D-06 -0.34340822D-06 -0.58719088D-06 -0.91075914D-06
 -0.11815494D-05 -0.40017849D-06 -0.14005490D-04 -0.10329621D-04 -0.94467859D-06
  0.12147892D-05  0.34509351D-04  0.33160053D-03 -0.30749476D-04  0.69664546D-05
  0.51125996D-06 -0.14837348D-05 -0.29202392D-11  0.85672098D-04  0.10023856D-03
  0.91223067D-04  0.55764987D-04 -0.80315960D-04 -0.93971745D-04 -0.85519888D-04
 -0.52278613D-04 -0.78636280D-09 -0.92006475D-09 -0.83731375D-09 -0.51185289D-09
 -0.54027400D-04 -0.10831212D-04  0.19112446D-04  0.38315921D-05  0.52117950D-09
  0.10448413D-09  0.33282259D-04 -0.51747483D-04 -0.26836334D-09  0.47027846D-05
 -0.40617909D-04 -0.29198749D-10 -0.17788008D-05  0.65173476D-05  0.10121358D-10
 -0.18753032D-04 -0.20305013D-04  0.39058045D-04 -0.80790511D-04  0.11592115D-08
  0.84907154D-09  0.11368571D-04  0.21876360D-05 -0.13556207D-04  0.30028185D-04
 -0.51139186D-09 -0.30120630D-09 -0.16213277D-07 -0.30340775D-07 -0.51879442D-07
 -0.80467318D-07 -0.10439216D-06 -0.35356538D-07  0.84578671D-06  0.62380226D-06
  0.57048815D-07 -0.11936045D-05  0.74344977D-06 -0.40413006D-04  0.73566280D-05
 -0.20861255D-05 -0.10492927D-05  0.34021159D-06  0.85394311D-11  0.10792762D-03
  0.12627810D-03  0.11492060D-03  0.70251371D-04 -0.67464630D-04 -0.78935357D-04
 -0.71835879D-04 -0.43913529D-04 -0.72119406D-09 -0.84381564D-09 -0.76792252D-09
 -0.46943378D-09 -0.11806259D-03 -0.23668749D-04  0.71297409D-04  0.14293439D-04
  0.81667332D-09  0.16372363D-09  0.77412155D-05 -0.10291464D-04 -0.26571632D-10
 -0.52592908D-04  0.27402836D-04  0.39384186D-09  0.57882081D-05 -0.24369990D-05
 -0.45173527D-10  0.69165146D-04 -0.68082103D-04 -0.10830431D-05  0.74503072D-04
 -0.15690273D-08 -0.20906783D-09 -0.13787597D-04  0.12399715D-04  0.13878811D-05
 -0.86775257D-05  0.27908133D-09  0.24763418D-10 -0.23278829D+00 -0.42968493D+00
 -0.70702496D+00 -0.95915854D+00 -0.96154729D+00 -0.11569768D+00 -0.23450897D+00