 Title Card Required
GAUSSIAN             21 MOL ORBITALS    300 PRIMITIVES       12 NUCLEI
  C    1    (CENTRE  1)   2.12693679  1.54736950 -0.00000056  CHARGE =  6.0
  C    2    (CENTRE  2)  -0.27662557  2.61565783  0.00000221  CHARGE =  6.0
  C    3    (CENTRE  3)  -2.40352960  1.06829744  0.00000363  CHARGE =  6.0
  C    4    (CENTRE  4)  -2.12691693 -1.54739678  0.00000053  CHARGE =  6.0
  C    5    (CENTRE  5)   0.27659205 -2.61566140 -0.00000303  CHARGE =  6.0
  C    6    (CENTRE  6)   2.40354328 -1.06826660 -0.00000274  CHARGE =  6.0
  H    7    (CENTRE  7)   3.78300563  2.75224964 -0.00000132  CHARGE =  1.0
  H    8    (CENTRE  8)  -0.49196354  4.65230643  0.00000379  CHARGE =  1.0
  H    9    (CENTRE  9)  -4.27502201  1.90005698  0.00000586  CHARGE =  1.0
  H   10    (CENTRE 10)  -3.78303581 -2.75220810  0.00000116  CHARGE =  1.0
  H   11    (CENTRE 11)   0.49201440 -4.65230104 -0.00000552  CHARGE =  1.0
  H   12    (CENTRE 12)   4.27500119 -1.90010387 -0.00000416  CHARGE =  1.0
CENTRE ASSIGNMENTS    1  1  1  1  1  1  1  1  1  1  1  1  1  1  1  1  1  1  1  1
CENTRE ASSIGNMENTS    1  1  1  1  1  1  1  1  1  1  1  1  1  1  1  1  1  1  1  1
CENTRE ASSIGNMENTS    1  1  2  2  2  2  2  2  2  2  2  2  2  2  2  2  2  2  2  2
CENTRE ASSIGNMENTS    2  2  2  2  2  2  2  2  2  2  2  2  2  2  2  2  2  2  2  2
CENTRE ASSIGNMENTS    2  2  2  2  3  3  3  3  3  3  3  3  3  3  3  3  3  3  3  3
CENTRE ASSIGNMENTS    3  3  3  3  3  3  3  3  3  3  3  3  3  3  3  3  3  3  3  3
CENTRE ASSIGNMENTS    3  3  3  3  3  3  4  4  4  4  4  4  4  4  4  4  4  4  4  4
CENTRE ASSIGNMENTS    4  4  4  4  4  4  4  4  4  4  4  4  4  4  4  4  4  4  4  4
CENTRE ASSIGNMENTS    4  4  4  4  4  4  4  4  5  5  5  5  5  5  5  5  5  5  5  5
CENTRE ASSIGNMENTS    5  5  5  5  5  5  5  5  5  5  5  5  5  5  5  5  5  5  5  5
CENTRE ASSIGNMENTS    5  5  5  5  5  5  5  5  5  5  6  6  6  6  6  6  6  6  6  6
CENTRE ASSIGNMENTS    6  6  6  6  6  6  6  6  6  6  6  6  6  6  6  6  6  6  6  6
CENTRE ASSIGNMENTS    6  6  6  6  6  6  6  6  6  6  6  6  7  7  7  7  7  7  7  7
CENTRE ASSIGNMENTS    8  8  8  8  8  8  8  8  9  9  9  9  9  9  9  9 10 10 10 10
CENTRE ASSIGNMENTS   10 10 10 10 11 11 11 11 11 11 11 11 12 12 12 12 12 12 12 12
TYPE ASSIGNMENTS      1  1  1  1  1  1  1  1  1  2  2  2  3  3  3  4  4  4  1  2
TYPE ASSIGNMENTS      3  4  1  2  3  4  1  2  3  4  5  6  7  8  9 10  5  6  7  8
TYPE ASSIGNMENTS      9 10  1  1  1  1  1  1  1  1  1  2  2  2  3  3  3  4  4  4
TYPE ASSIGNMENTS      1  2  3  4  1  2  3  4  1  2  3  4  5  6  7  8  9 10  5  6
TYPE ASSIGNMENTS      7  8  9 10  1  1  1  1  1  1  1  1  1  2  2  2  3  3  3  4
TYPE ASSIGNMENTS      4  4  1  2  3  4  1  2  3  4  1  2  3  4  5  6  7  8  9 10
TYPE ASSIGNMENTS      5  6  7  8  9 10  1  1  1  1  1  1  1  1  1  2  2  2  3  3
TYPE ASSIGNMENTS      3  4  4  4  1  2  3  4  1  2  3  4  1  2  3  4  5  6  7  8
TYPE ASSIGNMENTS      9 10  5  6  7  8  9 10  1  1  1  1  1  1  1  1  1  2  2  2
TYPE ASSIGNMENTS      3  3  3  4  4  4  1  2  3  4  1  2  3  4  1  2  3  4  5  6
TYPE ASSIGNMENTS      7  8  9 10  5  6  7  8  9 10  1  1  1  1  1  1  1  1  1  2
TYPE ASSIGNMENTS      2  2  3  3  3  4  4  4  1  2  3  4  1  2  3  4  1  2  3  4
TYPE ASSIGNMENTS      5  6  7  8  9 10  5  6  7  8  9 10  1  1  1  1  1  2  3  4
TYPE ASSIGNMENTS      1  1  1  1  1  2  3  4  1  1  1  1  1  2  3  4  1  1  1  1
TYPE ASSIGNMENTS      1  2  3  4  1  1  1  1  1  2  3  4  1  1  1  1  1  2  3  4
EXPONENTS  0.4563240D+04 0.6820240D+03 0.1549730D+03 0.4445530D+02 0.1302900D+02
EXPONENTS  0.1827730D+01 0.2096420D+02 0.4803310D+01 0.1459330D+01 0.2096420D+02
EXPONENTS  0.4803310D+01 0.1459330D+01 0.2096420D+02 0.4803310D+01 0.1459330D+01
EXPONENTS  0.2096420D+02 0.4803310D+01 0.1459330D+01 0.4834560D+00 0.4834560D+00
EXPONENTS  0.4834560D+00 0.4834560D+00 0.1455850D+00 0.1455850D+00 0.1455850D+00
EXPONENTS  0.1455850D+00 0.4380000D-01 0.4380000D-01 0.4380000D-01 0.4380000D-01
EXPONENTS  0.1252000D+01 0.1252000D+01 0.1252000D+01 0.1252000D+01 0.1252000D+01
EXPONENTS  0.1252000D+01 0.3130000D+00 0.3130000D+00 0.3130000D+00 0.3130000D+00
EXPONENTS  0.3130000D+00 0.3130000D+00 0.4563240D+04 0.6820240D+03 0.1549730D+03
EXPONENTS  0.4445530D+02 0.1302900D+02 0.1827730D+01 0.2096420D+02 0.4803310D+01
EXPONENTS  0.1459330D+01 0.2096420D+02 0.4803310D+01 0.1459330D+01 0.2096420D+02
EXPONENTS  0.4803310D+01 0.1459330D+01 0.2096420D+02 0.4803310D+01 0.1459330D+01
EXPONENTS  0.4834560D+00 0.4834560D+00 0.4834560D+00 0.4834560D+00 0.1455850D+00
EXPONENTS  0.1455850D+00 0.1455850D+00 0.1455850D+00 0.4380000D-01 0.4380000D-01
EXPONENTS  0.4380000D-01 0.4380000D-01 0.1252000D+01 0.1252000D+01 0.1252000D+01
EXPONENTS  0.1252000D+01 0.1252000D+01 0.1252000D+01 0.3130000D+00 0.3130000D+00
EXPONENTS  0.3130000D+00 0.3130000D+00 0.3130000D+00 0.3130000D+00 0.4563240D+04
EXPONENTS  0.6820240D+03 0.1549730D+03 0.4445530D+02 0.1302900D+02 0.1827730D+01
EXPONENTS  0.2096420D+02 0.4803310D+01 0.1459330D+01 0.2096420D+02 0.4803310D+01
EXPONENTS  0.1459330D+01 0.2096420D+02 0.4803310D+01 0.1459330D+01 0.2096420D+02
EXPONENTS  0.4803310D+01 0.1459330D+01 0.4834560D+00 0.4834560D+00 0.4834560D+00
EXPONENTS  0.4834560D+00 0.1455850D+00 0.1455850D+00 0.1455850D+00 0.1455850D+00
EXPONENTS  0.4380000D-01 0.4380000D-01 0.4380000D-01 0.4380000D-01 0.1252000D+01
EXPONENTS  0.1252000D+01 0.1252000D+01 0.1252000D+01 0.1252000D+01 0.1252000D+01
EXPONENTS  0.3130000D+00 0.3130000D+00 0.3130000D+00 0.3130000D+00 0.3130000D+00
EXPONENTS  0.3130000D+00 0.4563240D+04 0.6820240D+03 0.1549730D+03 0.4445530D+02
EXPONENTS  0.1302900D+02 0.1827730D+01 0.2096420D+02 0.4803310D+01 0.1459330D+01
EXPONENTS  0.2096420D+02 0.4803310D+01 0.1459330D+01 0.2096420D+02 0.4803310D+01
EXPONENTS  0.1459330D+01 0.2096420D+02 0.4803310D+01 0.1459330D+01 0.4834560D+00
EXPONENTS  0.4834560D+00 0.4834560D+00 0.4834560D+00 0.1455850D+00 0.1455850D+00
EXPONENTS  0.1455850D+00 0.1455850D+00 0.4380000D-01 0.4380000D-01 0.4380000D-01
EXPONENTS  0.4380000D-01 0.1252000D+01 0.1252000D+01 0.1252000D+01 0.1252000D+01
EXPONENTS  0.1252000D+01 0.1252000D+01 0.3130000D+00 0.3130000D+00 0.3130000D+00
EXPONENTS  0.3130000D+00 0.3130000D+00 0.3130000D+00 0.4563240D+04 0.6820240D+03
EXPONENTS  0.1549730D+03 0.4445530D+02 0.1302900D+02 0.1827730D+01 0.2096420D+02
EXPONENTS  0.4803310D+01 0.1459330D+01 0.2096420D+02 0.4803310D+01 0.1459330D+01
EXPONENTS  0.2096420D+02 0.4803310D+01 0.1459330D+01 0.2096420D+02 0.4803310D+01
EXPONENTS  0.1459330D+01 0.4834560D+00 0.4834560D+00 0.4834560D+00 0.4834560D+00
EXPONENTS  0.1455850D+00 0.1455850D+00 0.1455850D+00 0.1455850D+00 0.4380000D-01
EXPONENTS  0.4380000D-01 0.4380000D-01 0.4380000D-01 0.1252000D+01 0.1252000D+01
EXPONENTS  0.1252000D+01 0.1252000D+01 0.1252000D+01 0.1252000D+01 0.3130000D+00
EXPONENTS  0.3130000D+00 0.3130000D+00 0.3130000D+00 0.3130000D+00 0.3130000D+00
EXPONENTS  0.4563240D+04 0.6820240D+03 0.1549730D+03 0.4445530D+02 0.1302900D+02
EXPONENTS  0.1827730D+01 0.2096420D+02 0.4803310D+01 0.1459330D+01 0.2096420D+02
EXPONENTS  0.4803310D+01 0.1459330D+01 0.2096420D+02 0.4803310D+01 0.1459330D+01
EXPONENTS  0.2096420D+02 0.4803310D+01 0.1459330D+01 0.4834560D+00 0.4834560D+00
EXPONENTS  0.4834560D+00 0.4834560D+00 0.1455850D+00 0.1455850D+00 0.1455850D+00
EXPONENTS  0.1455850D+00 0.4380000D-01 0.4380000D-01 0.4380000D-01 0.4380000D-01
EXPONENTS  0.1252000D+01 0.1252000D+01 0.1252000D+01 0.1252000D+01 0.1252000D+01
EXPONENTS  0.1252000D+01 0.3130000D+00 0.3130000D+00 0.3130000D+00 0.3130000D+00
EXPONENTS  0.3130000D+00 0.3130000D+00 0.3386500D+02 0.5094790D+01 0.1158790D+01
EXPONENTS  0.3258400D+00 0.1027410D+00 0.7500000D+00 0.7500000D+00 0.7500000D+00
EXPONENTS  0.3386500D+02 0.5094790D+01 0.1158790D+01 0.3258400D+00 0.1027410D+00
EXPONENTS  0.7500000D+00 0.7500000D+00 0.7500000D+00 0.3386500D+02 0.5094790D+01
EXPONENTS  0.1158790D+01 0.3258400D+00 0.1027410D+00 0.7500000D+00 0.7500000D+00
EXPONENTS  0.7500000D+00 0.3386500D+02 0.5094790D+01 0.1158790D+01 0.3258400D+00
EXPONENTS  0.1027410D+00 0.7500000D+00 0.7500000D+00 0.7500000D+00 0.3386500D+02
EXPONENTS  0.5094790D+01 0.1158790D+01 0.3258400D+00 0.1027410D+00 0.7500000D+00
EXPONENTS  0.7500000D+00 0.7500000D+00 0.3386500D+02 0.5094790D+01 0.1158790D+01
EXPONENTS  0.3258400D+00 0.1027410D+00 0.7500000D+00 0.7500000D+00 0.7500000D+00
MO    1     MO 0.0        OCC NO =    2.0000000  ORB. ENERGY =  -10.176852
  0.17879327D+00  0.33284027D+00  0.54751911D+00  0.73522627D+00  0.69224325D+00
  0.56886236D-01  0.15151726D+00  0.40260972D+00 -0.54274603D-03 -0.73109235D-03
 -0.68412231D-03 -0.52987917D-03 -0.53230583D-03 -0.49810710D-03 -0.38580321D-03
  0.13540801D-09  0.12670854D-09  0.98140658D-10  0.33459562D-02  0.81532591D-03
  0.59349799D-03 -0.25451932D-09 -0.49075346D-03  0.65115579D-04  0.47436362D-04
  0.65733955D-10 -0.20747766D-04 -0.22445317D-04 -0.16326773D-04  0.11764100D-10
  0.42082957D-03  0.27065208D-03 -0.69148165D-03  0.46400205D-03 -0.15354694D-08
  0.93795534D-09  0.53812954D-04 -0.97718837D-04  0.43905883D-04  0.46789637D-03
  0.49650062D-10 -0.73019498D-09  0.17874814D+00  0.33275626D+00  0.54738092D+00
  0.73504070D+00  0.69206853D+00  0.56871878D-01  0.15147906D+00  0.40250822D+00
 -0.54260920D-03  0.95112114D-04  0.89001505D-04  0.68935106D-04 -0.89945516D-03
 -0.84166842D-03 -0.65190472D-03 -0.46658630D-09 -0.43660982D-09 -0.33817118D-09
  0.33450003D-02 -0.10609083D-03  0.10030292D-02  0.76115894D-09 -0.49062968D-03
 -0.84984886D-05  0.80051549D-04 -0.12911960D-09 -0.20912832D-04  0.29371809D-05
 -0.27577703D-04  0.14941304D-10  0.10712476D-03  0.58405469D-03 -0.69117945D-03
 -0.10198482D-03 -0.15566895D-08  0.11832387D-08 -0.26245184D-03  0.21855759D-03
  0.43894254D-04 -0.10277528D-03  0.47127665D-09  0.78931068D-09  0.17881399D+00
  0.33287884D+00  0.54758256D+00  0.73531148D+00  0.69232348D+00  0.56892829D-01
  0.15153481D+00  0.40265637D+00 -0.54280891D-03  0.82625393D-03  0.77317010D-03
  0.59885013D-03 -0.36724583D-03 -0.34365161D-03 -0.26617146D-03 -0.11209955D-08
 -0.10489756D-08 -0.81247213D-09  0.33461963D-02 -0.92149561D-03  0.40951811D-03
  0.10119270D-08 -0.49100659D-03 -0.73724167D-04  0.32741291D-04  0.30130904D-09
 -0.20226825D-04  0.25396337D-04 -0.11271867D-04 -0.68303938D-10  0.50923822D-03
  0.18237348D-03 -0.69161170D-03 -0.36203480D-03 -0.30900156D-08  0.19865770D-08
  0.14275747D-03 -0.18663657D-03  0.43879098D-04 -0.36496439D-03  0.56835370D-10
 -0.24997465D-09  0.17875640D+00  0.33277163D+00  0.54740620D+00  0.73507465D+00
  0.69210049D+00  0.56874505D-01  0.15148605D+00  0.40252681D+00 -0.54263425D-03
  0.73118835D-03  0.68421214D-03  0.52994875D-03  0.53223661D-03  0.49804233D-03
  0.38575304D-03 -0.75464483D-10 -0.70616163D-10 -0.54694948D-10  0.33450649D-02
 -0.81553637D-03 -0.59345252D-03  0.20580214D-09 -0.49076399D-03 -0.65145205D-04
 -0.47399848D-04 -0.78716432D-10 -0.20654981D-04  0.22447414D-04  0.16309060D-04
 -0.65958411D-11  0.42072872D-03  0.27050251D-03 -0.69123122D-03  0.46406213D-03
 -0.17137393D-08  0.15448476D-08  0.53768770D-04 -0.97644853D-04  0.43876084D-04
  0.46785660D-03  0.20202087D-09 -0.93449178D-09  0.17874323D+00  0.33274712D+00
  0.54736588D+00  0.73502052D+00  0.69204952D+00  0.56870316D-01  0.15147490D+00
  0.40249718D+00 -0.54259432D-03 -0.94762624D-04 -0.88674468D-04 -0.68681803D-04
  0.89949722D-03  0.84170777D-03  0.65193521D-03  0.85611284D-09  0.80111069D-09
  0.62049119D-09  0.33448820D-02  0.10582348D-03 -0.10030767D-02 -0.94094055D-09
 -0.49063119D-03  0.83922568D-05 -0.80063064D-04 -0.10309491D-09 -0.20901427D-04
 -0.29098203D-05  0.27579373D-04  0.68942501D-10  0.10712003D-03  0.58402620D-03
 -0.69114624D-03 -0.10214178D-03 -0.14465920D-08  0.32091070D-08 -0.26240746D-03
  0.21851705D-03  0.43890410D-04 -0.10312655D-03  0.36439597D-09  0.48918248D-09
  0.17884606D+00  0.33293855D+00  0.54768078D+00  0.73544337D+00  0.69244766D+00
  0.56903034D-01  0.15156195D+00  0.40272849D+00 -0.54290614D-03 -0.82615005D-03
 -0.77307289D-03 -0.59877484D-03  0.36739993D-03  0.34379581D-03  0.26628314D-03
  0.78879475D-09  0.73811754D-09  0.57170057D-09  0.33469711D-02  0.92128976D-03
 -0.40967403D-03 -0.89575928D-09 -0.49099722D-03  0.73693700D-04 -0.32804719D-04
 -0.59717225D-10 -0.20306056D-04 -0.25394389D-04  0.11295156D-04 -0.19204656D-10
  0.50932308D-03  0.18250634D-03 -0.69182941D-03 -0.36199359D-03 -0.12462276D-08
  0.14673927D-08  0.14282931D-03 -0.18673411D-03  0.43904808D-04 -0.36489779D-03
 -0.28980879D-09 -0.22494508D-09 -0.21242987D-04 -0.38319317D-04 -0.56492774D-04
 -0.89696201D-03  0.28076037D-03  0.10225723D-02  0.74407392D-03 -0.32412251D-09
 -0.21256859D-04 -0.38344341D-04 -0.56529665D-04 -0.89689767D-03  0.28075707D-03
 -0.13300960D-03  0.12574792D-02  0.70140649D-09 -0.21223399D-04 -0.38283983D-04
 -0.56440683D-04 -0.89693681D-03  0.28071231D-03 -0.11556760D-02  0.51357283D-03
  0.17040509D-08 -0.21246197D-04 -0.38325108D-04 -0.56501311D-04 -0.89688664D-03
  0.28072746D-03 -0.10225417D-02 -0.74388968D-03  0.22707529D-09 -0.21257306D-04
 -0.38345148D-04 -0.56530855D-04 -0.89688768D-03  0.28075276D-03  0.13290417D-03
 -0.12574726D-02 -0.15488972D-08 -0.21220581D-04 -0.38278901D-04 -0.56433190D-04
 -0.89700236D-03  0.28074083D-03  0.11557141D-02 -0.51377211D-03 -0.91554038D-09
MO    2     MO 0.0        OCC NO =    2.0000000  ORB. ENERGY =  -10.176616
 -0.16170307D+00 -0.30102527D+00 -0.49518373D+00 -0.66494864D+00 -0.62607421D+00
 -0.51448686D-01 -0.13684396D+00 -0.36362004D+00  0.49018521D-03 -0.10880236D-02
 -0.10181220D-02 -0.78857483D-03  0.12193768D-02  0.11410362D-02  0.88377664D-03
  0.18585698D-08  0.17391634D-08  0.13470493D-08 -0.39080735D-02  0.13975796D-02
 -0.85220333D-03 -0.17954223D-08 -0.47084426D-04  0.32594310D-03 -0.42961134D-03
 -0.52474199D-09  0.40282914D-03 -0.57322127D-04  0.14427493D-03  0.10632163D-09
 -0.71873285D-03 -0.37944239D-03  0.10981752D-02  0.44158896D-03  0.36331452D-08
 -0.21247194D-08 -0.75415639D-03  0.88435603D-03 -0.13019964D-03  0.18887572D-03
  0.10473028D-08  0.13276407D-08  0.87512047D-01  0.16291180D+00  0.26798838D+00
  0.35986341D+00  0.33882497D+00  0.27843503D-01  0.74058599D-01  0.19678756D+00
 -0.26528338D-03 -0.19827092D-02 -0.18553273D-02 -0.14370227D-02 -0.12140755D-03
 -0.11360756D-03 -0.87993444D-04  0.18452992D-08  0.17267454D-08  0.13374310D-08
  0.21148655D-02  0.18699785D-02 -0.14419942D-03 -0.17593566D-08  0.25281501D-04
  0.65496707D-03  0.63360100D-04 -0.65193805D-09 -0.21758130D-03 -0.18033247D-03
 -0.40064370D-04  0.17585244D-09  0.43916664D-03  0.15510044D-03 -0.59426708D-03
 -0.51178634D-03 -0.17266180D-08  0.11479230D-08  0.85199659D-04 -0.15569761D-03
  0.70497954D-04 -0.19666256D-02 -0.14098599D-08  0.17763676D-08  0.24926400D+00
  0.46402807D+00  0.76332181D+00  0.10250131D+01  0.96508846D+00  0.79307743D-01
  0.21094388D+00  0.56051739D+00 -0.75561660D-03 -0.37432455D-03 -0.35027555D-03
 -0.27130195D-03 -0.22571501D-03 -0.21121364D-03 -0.16359313D-03  0.49711360D-09
  0.46517585D-09  0.36029668D-09  0.60239908D-02  0.10207919D-02 -0.89169398D-04
 -0.19322196D-08  0.72570223D-04  0.63204892D-04  0.10197005D-03 -0.14613339D-10
 -0.62212382D-03  0.40681654D-04 -0.54372699D-04 -0.80685418D-10  0.72089806D-03
  0.97173437D-03 -0.16926324D-02  0.42892894D-03 -0.48633081D-08  0.39928598D-08
  0.19949615D-03 -0.39994256D-03  0.20044641D-03 -0.13217631D-03 -0.11251983D-09
 -0.94602314D-09  0.16169140D+00  0.30100355D+00  0.49514802D+00  0.66490068D+00
  0.62602906D+00  0.51444975D-01  0.13683407D+00  0.36359376D+00 -0.49014978D-03
 -0.10877592D-02 -0.10178746D-02 -0.78838320D-03  0.12193348D-02  0.11409970D-02
  0.88374626D-03  0.23378435D-08  0.21876455D-08  0.16944160D-08  0.39078721D-02
  0.13974739D-02 -0.85223220D-03 -0.21517539D-08  0.47615228D-04  0.32607621D-03
 -0.42952370D-03 -0.88469058D-09 -0.40342817D-03 -0.57364477D-04  0.14426466D-03
  0.24409279D-09  0.71872469D-03  0.37936302D-03 -0.10980877D-02 -0.44171165D-03
 -0.37061400D-08  0.37487985D-08  0.75416297D-03 -0.88431015D-03  0.13014718D-03
 -0.18872569D-03 -0.18845974D-08 -0.19441717D-08 -0.87434829D-01 -0.16276805D+00
 -0.26775191D+00 -0.35954588D+00 -0.33852600D+00 -0.27818935D-01 -0.73993159D-01
 -0.19661368D+00  0.26504897D-03 -0.19826588D-02 -0.18552802D-02 -0.14369862D-02
 -0.12137370D-03 -0.11357588D-03 -0.87968910D-04  0.16364591D-08  0.15313225D-08
  0.11860685D-08 -0.21134357D-02  0.18700061D-02 -0.14436359D-03 -0.19124132D-08
 -0.26113088D-04  0.65500064D-03  0.63129930D-04 -0.44837864D-09  0.21835971D-03
 -0.18034627D-03 -0.40002837D-04  0.75427286D-10 -0.43912025D-03 -0.15477721D-03
  0.59389746D-03  0.51179904D-03  0.29473400D-08 -0.23379251D-08 -0.85225706D-04
  0.15564594D-03 -0.70420238D-04  0.19666044D-02  0.20305372D-08 -0.11107708D-08
 -0.24925390D+00 -0.46400928D+00 -0.76329090D+00 -0.10249716D+01 -0.96504938D+00
 -0.79304532D-01 -0.21093532D+00 -0.56049465D+00  0.75558594D-03 -0.37457420D-03
 -0.35050917D-03 -0.27148290D-03 -0.22587006D-03 -0.21135873D-03 -0.16370550D-03
  0.94195637D-10  0.88143908D-10  0.68270863D-10 -0.60238035D-02  0.10209480D-02
 -0.89207867D-04 -0.65091762D-09 -0.72477035D-04  0.63162352D-04  0.10197068D-03
  0.12362691D-09  0.62193571D-03  0.40701081D-04 -0.54355126D-04 -0.63003316D-10
 -0.72081618D-03 -0.97180579D-03  0.16926220D-02 -0.42883562D-03  0.23286031D-08
 -0.42764983D-08 -0.19950051D-03  0.39995367D-03 -0.20045315D-03  0.13203014D-03
 -0.29533087D-09  0.95415595D-09 -0.14098120D-04 -0.25430998D-04 -0.37491994D-04
  0.33094522D-03 -0.14419810D-03  0.11637446D-04 -0.10090942D-02 -0.61420982D-09
  0.76240622D-05  0.13752720D-04  0.20275135D-04 -0.17911179D-03  0.78057796D-04
  0.96535157D-03  0.42008963D-03 -0.78768478D-09  0.21755871D-04  0.39244488D-04
  0.57856720D-04 -0.51040522D-03  0.22216268D-03 -0.74944632D-03  0.53151098D-03
  0.11747629D-08  0.14073135D-04  0.25385927D-04  0.37425548D-04 -0.33110443D-03
  0.14428476D-03  0.11503775D-04 -0.10090935D-02 -0.13018865D-08 -0.75974710D-05
 -0.13704754D-04 -0.20204419D-04  0.17901844D-03 -0.78077532D-04  0.96534573D-03
  0.41980393D-03 -0.28789479D-09 -0.21766510D-04 -0.39263679D-04 -0.57885013D-04
  0.51027800D-03 -0.22211076D-03 -0.74926791D-03  0.53155754D-03  0.10979142D-08
MO    3     MO 0.0        OCC NO =    2.0000000  ORB. ENERGY =  -10.176615
 -0.19441456D+00 -0.36192075D+00 -0.59535624D+00 -0.79946351D+00 -0.75272503D+00
 -0.61856427D-01 -0.16452658D+00 -0.43717794D+00  0.58934640D-03  0.63773451D-03
  0.59676237D-03  0.46221553D-03 -0.12087027D-02 -0.11310480D-02 -0.87604036D-03
 -0.15383749D-08 -0.14395399D-08 -0.11149793D-08 -0.46985791D-02 -0.12829150D-03
  0.14613974D-02  0.14138846D-08 -0.56835986D-04 -0.25349591D-03  0.37023695D-03
  0.43423436D-09  0.48538306D-03  0.11098121D-03 -0.73986579D-04 -0.12130591D-09
 -0.42011628D-03 -0.90013757D-03  0.13202538D-02  0.24364914D-03  0.28979249D-08
 -0.35619774D-08  0.65809767D-03 -0.50175023D-03 -0.15634744D-03 -0.78496980D-03
 -0.18112520D-08  0.32524307D-09 -0.23723308D+00 -0.44163140D+00 -0.72647950D+00
 -0.97554004D+00 -0.91850772D+00 -0.75479894D-01 -0.20076249D+00 -0.53346353D+00
  0.71914610D-03 -0.70268470D-03 -0.65753975D-03 -0.50928995D-03 -0.31392931D-03
 -0.29376048D-03 -0.22752885D-03  0.51238171D-09  0.47946304D-09  0.37136265D-09
 -0.57335398D-02  0.57946381D-03  0.98892483D-03 -0.31208988D-09 -0.69464466D-04
  0.23966771D-03  0.41307912D-04 -0.30474738D-09  0.59179065D-03 -0.73264141D-04
  0.49022333D-04  0.12152355D-09 -0.10104510D-02 -0.60064332D-03  0.16110943D-02
 -0.29892113D-03  0.52042718D-08 -0.26133810D-08  0.40436104D-03 -0.21345120D-03
 -0.19090984D-03 -0.61210434D-03 -0.14103369D-08  0.84336077D-09 -0.42881500D-01
 -0.79827893D-01 -0.13131613D+00 -0.17633553D+00 -0.16602655D+00 -0.13643507D-01
 -0.36289217D-01 -0.96427245D-01  0.12999066D-03 -0.80719024D-03 -0.75533118D-03
 -0.58503320D-03 -0.19223625D-02 -0.17988576D-02 -0.13932848D-02 -0.92917430D-09
 -0.86947821D-09 -0.67344448D-09 -0.10362011D-02  0.63460909D-03  0.18381101D-02
  0.11355451D-08 -0.12045780D-04  0.27832354D-03  0.63266665D-03  0.22528548D-09
  0.10677047D-03 -0.87626942D-04 -0.17204145D-03 -0.34534366D-10  0.10069269D-03
 -0.39183468D-03  0.29114199D-03  0.33208565D-03  0.47932337D-09 -0.26216215D-08
  0.75788368D-03 -0.72340605D-03 -0.34477630D-04  0.14527490D-02 -0.45749185D-09
 -0.25844386D-08  0.19444506D+00  0.36197753D+00  0.59544964D+00  0.79958893D+00
  0.75284311D+00  0.61866131D-01  0.16455245D+00  0.43724666D+00 -0.58943905D-03
  0.63786190D-03  0.59688158D-03  0.46230786D-03 -0.12087762D-02 -0.11311167D-02
 -0.87609361D-03 -0.19172648D-08 -0.17940874D-08 -0.13895901D-08  0.46991259D-02
 -0.12840747D-03  0.14612966D-02  0.17628165D-08  0.56357831D-04 -0.25358473D-03
  0.37014893D-03  0.74685807D-09 -0.48498964D-03  0.11099547D-03 -0.73955530D-04
 -0.23261565D-09  0.42027406D-03  0.90009687D-03 -0.13203709D-02 -0.24353185D-03
 -0.42976527D-08  0.46751093D-08 -0.65815191D-03  0.50175246D-03  0.15639945D-03
  0.78500181D-03  0.24913597D-08  0.28876084D-09  0.23726371D+00  0.44168841D+00
  0.72657329D+00  0.97566598D+00  0.91862630D+00  0.75489639D-01  0.20078845D+00
  0.53353250D+00 -0.71923908D-03 -0.70281188D-03 -0.65765876D-03 -0.50938213D-03
 -0.31390827D-03 -0.29374080D-03 -0.22751360D-03  0.13222708D-09  0.12373197D-09
  0.95835192D-10  0.57341062D-02  0.57943193D-03  0.98883351D-03  0.87127963D-09
  0.69154383D-04  0.23964965D-03  0.41221007D-04 -0.11824726D-09 -0.59151595D-03
 -0.73247653D-04  0.49046818D-04  0.11808834D-09  0.10104884D-02  0.60074633D-03
 -0.16112347D-02  0.29870604D-03 -0.37646982D-08  0.47950613D-08 -0.40438522D-03
  0.21344585D-03  0.19093937D-03  0.61216392D-03  0.16455731D-08 -0.28781218D-09
  0.42859294D-01  0.79786554D-01  0.13124813D+00  0.17624421D+00  0.16594057D+00
  0.13636441D-01  0.36270380D-01  0.96377192D-01 -0.12992319D-03 -0.80728819D-03
 -0.75542284D-03 -0.58510419D-03 -0.19223297D-02 -0.17988270D-02 -0.13932610D-02
 -0.11474003D-08 -0.10736840D-08 -0.83160976D-09  0.10358163D-02  0.63460147D-03
  0.18381444D-02  0.11498144D-08  0.12727189D-04  0.27815280D-03  0.63275173D-03
  0.42583058D-09 -0.10744308D-03 -0.87585517D-04 -0.17206240D-03 -0.12044585D-09
 -0.10082150D-03  0.39185651D-03 -0.29103502D-03 -0.33198535D-03 -0.32820939D-09
  0.87924186D-09 -0.75781875D-03  0.72341312D-03  0.34405630D-04 -0.14528154D-02
 -0.36880739D-09  0.21644203D-08 -0.16964866D-04 -0.30602197D-04 -0.45115705D-04
  0.39807085D-03 -0.17329677D-03 -0.97070569D-03  0.14017342D-03  0.78252605D-09
 -0.20679520D-04 -0.37302904D-04 -0.54994313D-04  0.48568001D-03 -0.21156009D-03
  0.45838150D-03 -0.81352243D-03 -0.11587634D-08 -0.37637178D-05 -0.67892099D-05
 -0.10009085D-04  0.87725457D-04 -0.38130556D-04  0.56993923D-03  0.90097819D-03
  0.10702692D-09  0.16976372D-04  0.30622952D-04  0.45146304D-04 -0.39809639D-03
  0.17328157D-03 -0.97084717D-03  0.14017181D-03  0.13282091D-08  0.20688272D-04
  0.37318692D-04  0.55017588D-04 -0.48573160D-03  0.21155905D-03  0.45848851D-03
 -0.81363841D-03 -0.11506242D-08  0.37388215D-05  0.67443006D-05  0.99428767D-05
 -0.87843714D-04  0.38207950D-04  0.56996476D-03  0.90095317D-03  0.53183177D-09
MO    4     MO 0.0        OCC NO =    2.0000000  ORB. ENERGY =  -10.176012
 -0.16432781D+00 -0.30591146D+00 -0.50322148D+00 -0.67574199D+00 -0.63623656D+00
 -0.52283793D-01 -0.13911981D+00 -0.36966738D+00  0.49833745D-03  0.19761017D-03
  0.18491443D-03  0.14322337D-03 -0.12343679D-02 -0.11550642D-02 -0.89464188D-03
 -0.99503860D-09 -0.93111097D-09 -0.72118143D-09 -0.32002961D-02  0.51698998D-04
  0.91867902D-03  0.59652234D-09  0.70870582D-03 -0.31345665D-03 -0.82038175D-04
  0.24535094D-09 -0.12658996D-02  0.67729455D-04  0.98273954D-04  0.64033921D-11
 -0.39705793D-03 -0.69050061D-03  0.10875585D-02 -0.83562615D-04  0.27215494D-08
 -0.21320552D-08  0.26396402D-03 -0.26406778D-03  0.10375807D-06  0.20364498D-03
 -0.24348603D-09 -0.96251484D-09 -0.84439232D-01 -0.15719147D+00 -0.25857849D+00
 -0.34722751D+00 -0.32692779D+00 -0.26865833D-01 -0.71486200D-01 -0.18995222D+00
  0.25606886D-03 -0.13433096D-02 -0.12570068D-02 -0.97360036D-03 -0.43459619D-03
 -0.40667496D-03 -0.31498548D-03  0.10957701D-08  0.10253709D-08  0.79418937D-09
 -0.16445075D-02  0.84685244D-03  0.39036606D-03 -0.74969191D-09  0.36401893D-03
  0.16182896D-03 -0.13867585D-03 -0.24218168D-09 -0.65055391D-03  0.42774160D-04
  0.62713356D-04 -0.66439529D-11 -0.24266664D-03 -0.31620042D-03  0.55886706D-03
 -0.37074651D-03  0.10221240D-08 -0.47680716D-09 -0.32421649D-04  0.32406114D-04
  0.15535445D-07 -0.57129334D-03  0.22395283D-09  0.59238331D-09  0.24863499D+00
  0.46285711D+00  0.76139559D+00  0.10224265D+01  0.96265308D+00  0.79107612D-01
  0.21049420D+00  0.55932251D+00 -0.75400581D-03 -0.67527136D-03 -0.63188762D-03
 -0.48942139D-03  0.59221310D-03  0.55416555D-03  0.42922264D-03  0.16058836D-08
  0.15027114D-08  0.11639080D-08  0.48420476D-02  0.73637565D-03 -0.51379961D-03
 -0.18274162D-08 -0.10726448D-02 -0.42867574D-03  0.15969850D-03  0.59396091D-09
  0.19167922D-02  0.15187536D-03 -0.77941429D-04 -0.27485657D-09  0.79034859D-03
  0.85535297D-03 -0.16457016D-02 -0.36578810D-04 -0.54864012D-08  0.43411758D-08
 -0.21968026D-03  0.21979763D-03 -0.11736426D-06  0.32989950D-03  0.84430840D-09
  0.44094881D-09 -0.16427562D+00 -0.30581432D+00 -0.50306168D+00 -0.67552741D+00
 -0.63603452D+00 -0.52267191D-01 -0.13907569D+00 -0.36955015D+00  0.49817941D-03
 -0.19758132D-03 -0.18488744D-03 -0.14320246D-03  0.12340075D-02  0.11547270D-02
  0.89438071D-03  0.15076890D-08  0.14108255D-08  0.10927389D-08 -0.31990421D-02
 -0.51672816D-04 -0.91815368D-03 -0.10602910D-08  0.70876748D-03  0.31328507D-03
  0.82084265D-04 -0.19414760D-09 -0.12663148D-02 -0.67718196D-04 -0.98313653D-04
 -0.40699821D-10 -0.39707154D-03 -0.69008616D-03  0.10871577D-02 -0.83662683D-04
  0.27938180D-08 -0.40206213D-08  0.26383468D-03 -0.26389652D-03  0.61835097D-07
  0.20359115D-03 -0.35742625D-09 -0.35330950D-09 -0.84430730D-01 -0.15717564D+00
 -0.25855245D+00 -0.34719255D+00 -0.32689487D+00 -0.26863128D-01 -0.71479049D-01
 -0.18993322D+00  0.25604325D-03  0.13430910D-02  0.12568023D-02  0.97344193D-03
  0.43452207D-03  0.40660560D-03  0.31493175D-03 -0.48754500D-09 -0.45622199D-09
 -0.35336157D-09 -0.16441115D-02 -0.84660870D-03 -0.39008258D-03  0.10412013D-09
  0.36437796D-03 -0.16175513D-03  0.13886283D-03  0.31447896D-09 -0.65053790D-03
 -0.42803025D-04 -0.62688018D-04 -0.50679552D-10 -0.24241069D-03 -0.31623922D-03
  0.55864991D-03 -0.37046662D-03  0.12415463D-08 -0.19916500D-08 -0.32573036D-04
  0.32512421D-04  0.60614615D-07 -0.57113918D-03 -0.11494600D-08  0.59247453D-09
  0.24865746D+00  0.46289894D+00  0.76146440D+00  0.10225189D+01  0.96274007D+00
  0.79114761D-01  0.21051320D+00  0.55937300D+00 -0.75407388D-03  0.67514455D-03
  0.63176896D-03  0.48932948D-03 -0.59274036D-03 -0.55465894D-03 -0.42960479D-03
 -0.75882373D-09 -0.71007205D-09 -0.54997825D-09  0.48425212D-02 -0.73618642D-03
  0.51446139D-03  0.75168414D-09 -0.10727286D-02  0.42889288D-03 -0.15954190D-03
 -0.47156641D-09  0.19165351D-02 -0.15188233D-03  0.77873647D-04  0.16280633D-09
  0.79018985D-03  0.85564089D-03 -0.16458307D-02 -0.36962369D-04 -0.25930698D-08
  0.43860202D-08 -0.21989403D-03  0.22006170D-03 -0.16767542D-06  0.32972133D-03
  0.66407188D-09 -0.29962054D-09 -0.65518375D-04 -0.11818580D-03 -0.17423702D-03
  0.15390262D-03  0.44716611D-04 -0.44945090D-03 -0.13105002D-03  0.48884194D-09
 -0.33652952D-04 -0.60705123D-04 -0.89495353D-04  0.79111846D-04  0.22912354D-04
  0.21913062D-03 -0.20451004D-03 -0.25599931D-09  0.99166386D-04  0.17888201D-03
  0.26371924D-03 -0.23245522D-03 -0.67790152D-04 -0.62416439D-03  0.23597970D-03
  0.79342052D-09 -0.65495640D-04 -0.11814479D-03 -0.17417656D-03  0.15377045D-03
  0.44710956D-04  0.44926142D-03  0.13106117D-03 -0.13348148D-09 -0.33661259D-04
 -0.60720110D-04 -0.89517446D-04  0.79104927D-04  0.22993884D-04 -0.21903441D-03
  0.20450905D-03  0.52936644D-09  0.99183436D-04  0.17891277D-03  0.26376458D-03
 -0.23252136D-03 -0.67829705D-04  0.62430701D-03 -0.23580659D-03 -0.71253844D-09
MO    5     MO 0.0        OCC NO =    2.0000000  ORB. ENERGY =  -10.176012
 -0.19227283D+00 -0.35793372D+00 -0.58879760D+00 -0.79065636D+00 -0.74443276D+00
 -0.61174996D-01 -0.16277805D+00 -0.43253177D+00  0.58308304D-03 -0.10960889D-02
 -0.10256691D-02 -0.79442038D-03  0.37935439D-03  0.35498224D-03  0.27494747D-03
  0.11866882D-08  0.11104478D-08  0.86008474D-09 -0.37443134D-02  0.90896387D-03
 -0.90783913D-04 -0.69016906D-09  0.82964644D-03 -0.22635954D-03 -0.28921379D-03
 -0.68276285D-10 -0.14822158D-02  0.12650594D-03  0.50125313D-04 -0.54631944D-10
 -0.75808714D-03 -0.51448387D-03  0.12725710D-02  0.91990963D-04  0.31223154D-08
 -0.26348808D-08 -0.11438219D-03  0.11425439D-03  0.12779915D-06  0.51249143D-03
  0.10312364D-08 -0.51192092D-09  0.23843263D+00  0.44386447D+00  0.73015289D+00
  0.98047278D+00  0.92315209D+00  0.75861552D-01  0.20185693D+00  0.53637166D+00
 -0.72306647D-03 -0.57246766D-03 -0.53568868D-03 -0.41491159D-03  0.76605311D-03
  0.71683697D-03  0.55521794D-03  0.10181469D-08  0.95273461D-09  0.73792978D-09
  0.46433037D-02  0.39935477D-03 -0.80742575D-03 -0.64273301D-09 -0.10286172D-02
  0.53217731D-05  0.44088285D-03  0.34899278D-09  0.18375525D-02  0.34523643D-04
 -0.16065789D-03 -0.13253054D-09  0.81056655D-03  0.76744051D-03 -0.15780071D-02
 -0.12724687D-03 -0.50799154D-08  0.30830590D-08  0.27306876D-03 -0.27292949D-03
 -0.13926374D-06 -0.80210194D-04 -0.54283387D-10 -0.46771152D-09 -0.46124577D-01
 -0.85865182D-01 -0.14124742D+00 -0.18967158D+00 -0.17858294D+00 -0.14675349D-01
 -0.39048986D-01 -0.10376047D+00  0.13987636D-03  0.73072738D-03  0.68378079D-03
  0.52961465D-03  0.12521282D-02  0.11716835D-02  0.90751414D-03  0.22202746D-09
  0.20776300D-09  0.16092048D-09 -0.89844710D-03 -0.52378402D-03 -0.77525794D-03
  0.42012955D-10  0.19877375D-03  0.15398949D-04 -0.17386918D-03 -0.19750325D-09
 -0.35520641D-03 -0.49693081D-04 -0.33999622D-04  0.38758100D-10 -0.29788540D-03