 Entering Gaussian System, Link 0=g16
 Initial command:
 /software/gaussian//g16/l1.exe "/software/scratch/Gau-1695.inp" -scrdir="/software/scratch/"
 Entering Link 1 = /software/gaussian//g16/l1.exe PID=      1702.
  
 Copyright (c) 1988-2017, Gaussian, Inc.  All Rights Reserved.
  
 This is part of the Gaussian(R) 16 program.  It is based on
 the Gaussian(R) 09 system (copyright 2009, Gaussian, Inc.),
 the Gaussian(R) 03 system (copyright 2003, Gaussian, Inc.),
 the Gaussian(R) 98 system (copyright 1998, Gaussian, Inc.),
 the Gaussian(R) 94 system (copyright 1995, Gaussian, Inc.),
 the Gaussian 92(TM) system (copyright 1992, Gaussian, Inc.),
 the Gaussian 90(TM) system (copyright 1990, Gaussian, Inc.),
 the Gaussian 88(TM) system (copyright 1988, Gaussian, Inc.),
 the Gaussian 86(TM) system (copyright 1986, Carnegie Mellon
 University), and the Gaussian 82(TM) system (copyright 1983,
 Carnegie Mellon University). Gaussian is a federally registered
 trademark of Gaussian, Inc.
  
 This software contains proprietary and confidential information,
 including trade secrets, belonging to Gaussian, Inc.
  
 This software is provided under written license and may be
 used, copied, transmitted, or stored only in accord with that
 written license.
  
 The following legend is applicable only to US Government
 contracts under FAR:
  
                    RESTRICTED RIGHTS LEGEND
  
 Use, reproduction and disclosure by the US Government is
 subject to restrictions as set forth in subparagraphs (a)
 and (c) of the Commercial Computer Software - Restricted
 Rights clause in FAR 52.227-19.
  
 Gaussian, Inc.
 340 Quinnipiac St., Bldg. 40, Wallingford CT 06492
  
  
 ---------------------------------------------------------------
 Warning -- This program may not be used in any manner that
 competes with the business of Gaussian, Inc. or will provide
 assistance to any competitor of Gaussian, Inc.  The licensee
 of this program is prohibited from giving any competitor of
 Gaussian, Inc. access to this program.  By using this program,
 the user acknowledges that Gaussian, Inc. is engaged in the
 business of creating and licensing software in the field of
 computational chemistry and represents and warrants to the
 licensee that it is not a competitor of Gaussian, Inc. and that
 it will not use this program in any manner prohibited above.
 ---------------------------------------------------------------
  

 Cite this work as:
 Gaussian 16, Revision B.01,
 M. J. Frisch, G. W. Trucks, H. B. Schlegel, G. E. Scuseria, 
 M. A. Robb, J. R. Cheeseman, G. Scalmani, V. Barone, 
 G. A. Petersson, H. Nakatsuji, X. Li, M. Caricato, A. V. Marenich, 
 J. Bloino, B. G. Janesko, R. Gomperts, B. Mennucci, H. P. Hratchian, 
 J. V. Ortiz, A. F. Izmaylov, J. L. Sonnenberg, D. Williams-Young, 
 F. Ding, F. Lipparini, F. Egidi, J. Goings, B. Peng, A. Petrone, 
 T. Henderson, D. Ranasinghe, V. G. Zakrzewski, J. Gao, N. Rega, 
 G. Zheng, W. Liang, M. Hada, M. Ehara, K. Toyota, R. Fukuda, 
 J. Hasegawa, M. Ishida, T. Nakajima, Y. Honda, O. Kitao, H. Nakai, 
 T. Vreven, K. Throssell, J. A. Montgomery, Jr., J. E. Peralta, 
 F. Ogliaro, M. J. Bearpark, J. J. Heyd, E. N. Brothers, K. N. Kudin, 
 V. N. Staroverov, T. A. Keith, R. Kobayashi, J. Normand, 
 K. Raghavachari, A. P. Rendell, J. C. Burant, S. S. Iyengar, 
 J. Tomasi, M. Cossi, J. M. Millam, M. Klene, C. Adamo, R. Cammi, 
 J. W. Ochterski, R. L. Martin, K. Morokuma, O. Farkas, 
 J. B. Foresman, and D. J. Fox, Gaussian, Inc., Wallingford CT, 2016.
 
 ******************************************
 Gaussian 16:  EM64L-G16RevB.01 20-Dec-2017
                 1-Jul-2023 
 ******************************************
 %mem=1600mb
 %NProcShared=4
 Will use up to    4 processors via shared memory.
 %chk=benzene.chk
 ----------------------------------------------
 # opt freq B3LYP/6-311+G(2d,p) scf=xqc out=wfn
 ----------------------------------------------
 1/18=20,19=15,26=3,38=1/1,3;
 2/9=110,12=2,17=6,18=5,40=1/2;
 3/5=4,6=6,7=112,11=2,25=1,30=1,71=1,74=-5/1,2,3;
 4//1;
 5/5=2,8=3,13=1,38=5/2,8;
 6/7=2,8=2,9=2,10=2,28=1/1;
 7//1,2,3,16;
 1/18=20,19=15,26=3/3(2);
 2/9=110/2;
 99/6=100/99;
 2/9=110/2;
 3/5=4,6=6,7=112,11=2,25=1,30=1,71=1,74=-5/1,2,3;
 4/5=5,16=3,69=1/1;
 5/5=2,8=3,13=1,38=5/2,8;
 7//1,2,3,16;
 1/18=20,19=15,26=3/3(-5);
 2/9=110/2;
 6/7=2,8=2,9=2,10=2,19=2,28=1/1;
 99/6=100,9=1/99;
 -------------------
 Title Card Required
 -------------------
 Symbolic Z-matrix:
 Charge =  0 Multiplicity = 1
 C                     0.06128  -1.39748   0. 
 C                     1.24092  -0.64561  -0.00001 
 C                     1.17962   0.75181   0.00001 
 C                    -0.06135   1.39748  0. 
 C                    -1.2409    0.64567  -0.00001 
 C                    -1.17958  -0.75187   0.00001 
 H                     0.10907  -2.48456  -0.00001 
 H                     2.20618  -1.14793   0. 
 H                     2.09716   1.33674   0.00001 
 H                    -0.10896   2.48457   0.00001 
 H                    -2.20623   1.14782  -0.00002 
 H                    -2.09722  -1.33665   0.00002 
 

 GradGradGradGradGradGradGradGradGradGradGradGradGradGradGradGradGradGrad
 Berny optimization.
 Initialization pass.
                           ----------------------------
                           !    Initial Parameters    !
                           ! (Angstroms and Degrees)  !
 --------------------------                            --------------------------
 ! Name  Definition              Value          Derivative Info.                !
 --------------------------------------------------------------------------------
 ! R1    R(1,2)                  1.3989         estimate D2E/DX2                !
 ! R2    R(1,6)                  1.3988         estimate D2E/DX2                !
 ! R3    R(1,7)                  1.0881         estimate D2E/DX2                !
 ! R4    R(2,3)                  1.3988         estimate D2E/DX2                !
 ! R5    R(2,8)                  1.0881         estimate D2E/DX2                !
 ! R6    R(3,4)                  1.3989         estimate D2E/DX2                !
 ! R7    R(3,9)                  1.0881         estimate D2E/DX2                !
 ! R8    R(4,5)                  1.3988         estimate D2E/DX2                !
 ! R9    R(4,10)                 1.0881         estimate D2E/DX2                !
 ! R10   R(5,6)                  1.3989         estimate D2E/DX2                !
 ! R11   R(5,11)                 1.0881         estimate D2E/DX2                !
 ! R12   R(6,12)                 1.0881         estimate D2E/DX2                !
 ! A1    A(2,1,6)              120.0001         estimate D2E/DX2                !
 ! A2    A(2,1,7)              119.9956         estimate D2E/DX2                !
 ! A3    A(6,1,7)              120.0044         estimate D2E/DX2                !
 ! A4    A(1,2,3)              120.0002         estimate D2E/DX2                !
 ! A5    A(1,2,8)              119.9951         estimate D2E/DX2                !
 ! A6    A(3,2,8)              120.0047         estimate D2E/DX2                !
 ! A7    A(2,3,4)              119.9998         estimate D2E/DX2                !
 ! A8    A(2,3,9)              120.0049         estimate D2E/DX2                !
 ! A9    A(4,3,9)              119.9953         estimate D2E/DX2                !
 ! A10   A(3,4,5)              119.9999         estimate D2E/DX2                !
 ! A11   A(3,4,10)             119.995          estimate D2E/DX2                !
 ! A12   A(5,4,10)             120.0052         estimate D2E/DX2                !
 ! A13   A(4,5,6)              120.0001         estimate D2E/DX2                !
 ! A14   A(4,5,11)             120.0048         estimate D2E/DX2                !
 ! A15   A(6,5,11)             119.9951         estimate D2E/DX2                !
 ! A16   A(1,6,5)              120.0            estimate D2E/DX2                !
 ! A17   A(1,6,12)             120.0045         estimate D2E/DX2                !
 ! A18   A(5,6,12)             119.9955         estimate D2E/DX2                !
 ! D1    D(6,1,2,3)              0.0007         estimate D2E/DX2                !
 ! D2    D(6,1,2,8)            179.9991         estimate D2E/DX2                !
 ! D3    D(7,1,2,3)           -179.9998         estimate D2E/DX2                !
 ! D4    D(7,1,2,8)             -0.0014         estimate D2E/DX2                !
 ! D5    D(2,1,6,5)              0.0005         estimate D2E/DX2                !
 ! D6    D(2,1,6,12)          -179.9998         estimate D2E/DX2                !
 ! D7    D(7,1,6,5)           -179.999          estimate D2E/DX2                !
 ! D8    D(7,1,6,12)             0.0007         estimate D2E/DX2                !
 ! D9    D(1,2,3,4)             -0.0014         estimate D2E/DX2                !
 ! D10   D(1,2,3,9)            179.9993         estimate D2E/DX2                !
 ! D11   D(8,2,3,4)           -179.9998         estimate D2E/DX2                !
 ! D12   D(8,2,3,9)              0.0009         estimate D2E/DX2                !
 ! D13   D(2,3,4,5)              0.0008         estimate D2E/DX2                !
 ! D14   D(2,3,4,10)          -179.9999         estimate D2E/DX2                !
 ! D15   D(9,3,4,5)           -179.9999         estimate D2E/DX2                !
 ! D16   D(9,3,4,10)            -0.0006         estimate D2E/DX2                !
 ! D17   D(3,4,5,6)              0.0004         estimate D2E/DX2                !
 ! D18   D(3,4,5,11)          -179.9994         estimate D2E/DX2                !
 ! D19   D(10,4,5,6)          -179.9988         estimate D2E/DX2                !
 ! D20   D(10,4,5,11)            0.0014         estimate D2E/DX2                !
 ! D21   D(4,5,6,1)             -0.0011         estimate D2E/DX2                !
 ! D22   D(4,5,6,12)           179.9992         estimate D2E/DX2                !
 ! D23   D(11,5,6,1)           179.9987         estimate D2E/DX2                !
 ! D24   D(11,5,6,12)           -0.001          estimate D2E/DX2                !
 --------------------------------------------------------------------------------
 Trust Radius=3.00D-01 FncErr=1.00D-07 GrdErr=1.00D-06 EigMax=2.50D+02 EigMin=1.00D-04
 Number of steps in this run=     64 maximum allowed number of steps=    100.
 GradGradGradGradGradGradGradGradGradGradGradGradGradGradGradGradGradGrad

                          Input orientation:                          
 ---------------------------------------------------------------------
 Center     Atomic      Atomic             Coordinates (Angstroms)
 Number     Number       Type             X           Y           Z
 ---------------------------------------------------------------------
      1          6           0        0.061284   -1.397477    0.000000
      2          6           0        1.240924   -0.645606   -0.000008
      3          6           0        1.179615    0.751810    0.000006
      4          6           0       -0.061353    1.397478   -0.000001
      5          6           0       -1.240895    0.645666   -0.000005
      6          6           0       -1.179575   -0.751868    0.000007
      7          1           0        0.109066   -2.484558   -0.000007
      8          1           0        2.206176   -1.147925    0.000001
      9          1           0        2.097162    1.336735    0.000011
     10          1           0       -0.108955    2.484568    0.000009
     11          1           0       -2.206233    1.147819   -0.000021
     12          1           0       -2.097215   -1.336647    0.000017
 ---------------------------------------------------------------------
                    Distance matrix (angstroms):
                    1          2          3          4          5
     1  C    0.000000
     2  C    1.398878   0.000000
     3  C    2.422829   1.398760   0.000000
     4  C    2.797644   2.422833   1.398888   0.000000
     5  C    2.422830   2.797643   2.422836   1.398764   0.000000
     6  C    1.398764   2.422830   2.797646   2.422831   1.398879
     7  H    1.088131   2.159363   3.408835   3.885775   3.408914
     8  H    2.159361   1.088134   2.159357   3.408924   3.885778
     9  H    3.408917   2.159356   1.088131   2.159370   3.408842
    10  H    3.885776   3.408836   2.159366   1.088132   2.159363
    11  H    3.408836   3.885777   3.408928   2.159361   1.088134
    12  H    2.159356   3.408916   3.885778   3.408838   2.159363
                    6          7          8          9         10
     6  C    0.000000
     7  H    2.159354   0.000000
     8  H    3.408837   2.486857   0.000000
     9  H    3.885778   4.307529   2.487050   0.000000
    10  H    3.408921   4.973907   4.307533   2.486860   0.000000
    11  H    2.159360   4.307525   4.973911   4.307540   2.487061
    12  H    1.088131   2.487042   4.307527   4.973909   4.307535
                   11         12
    11  H    0.000000
    12  H    2.486857   0.000000
 This structure is nearly, but not quite of a higher symmetry.
 Consider Symm=Loose if the higher symmetry is desired.
 Stoichiometry    C6H6
 Framework group  C1[X(C6H6)]
 Deg. of freedom    30
 Full point group                 C1      NOp   1
 Largest Abelian subgroup         C1      NOp   1
 Largest concise Abelian subgroup C1      NOp   1
                         Standard orientation:                         
 ---------------------------------------------------------------------
 Center     Atomic      Atomic             Coordinates (Angstroms)
 Number     Number       Type             X           Y           Z
 ---------------------------------------------------------------------
      1          6           0        0.063260   -1.397389    0.000000
      2          6           0        1.241836   -0.643850   -0.000008
      3          6           0        1.178550    0.753477    0.000006
      4          6           0       -0.063330    1.397390   -0.000001
      5          6           0       -1.241807    0.643910   -0.000005
      6          6           0       -1.178510   -0.753536    0.000007
      7          1           0        0.112580   -2.484401   -0.000007
      8          1           0        2.207797   -1.144804    0.000001
      9          1           0        2.095269    1.339700    0.000011
     10          1           0       -0.112469    2.484411    0.000009
     11          1           0       -2.207854    1.144697   -0.000021
     12          1           0       -2.095322   -1.339612    0.000017
 ---------------------------------------------------------------------
 Rotational constants (GHZ):           5.6694193           5.6694026           2.8347055
 Standard basis: 6-311+G(2d,p) (5D, 7F)
 There are   210 symmetry adapted cartesian basis functions of A   symmetry.
 There are   198 symmetry adapted basis functions of A   symmetry.
   198 basis functions,   300 primitive gaussians,   210 cartesian basis functions
    21 alpha electrons       21 beta electrons
       nuclear repulsion energy       202.8830166392 Hartrees.
 NAtoms=   12 NActive=   12 NUniq=   12 SFac= 1.00D+00 NAtFMM=   60 NAOKFM=F Big=F
 Integral buffers will be    131072 words long.
 Raffenetti 2 integral format.
 Two-electron integral symmetry is turned on.
 One-electron integrals computed using PRISM.
 NBasis=   198 RedAO= T EigKep=  4.15D-06  NBF=   198
 NBsUse=   198 1.00D-06 EigRej= -1.00D+00 NBFU=   198
 ExpMin= 4.38D-02 ExpMax= 4.56D+03 ExpMxC= 6.82D+02 IAcc=3 IRadAn=         5 AccDes= 0.00D+00
 Harris functional with IExCor=  402 and IRadAn=       5 diagonalized for initial guess.
 HarFok:  IExCor=  402 AccDes= 0.00D+00 IRadAn=         5 IDoV= 1 UseB2=F ITyADJ=14
 ICtDFT=  3500011 ScaDFX=  1.000000  1.000000  1.000000  1.000000
 FoFCou: FMM=F IPFlag=           0 FMFlag=      100000 FMFlg1=           0
         NFxFlg=           0 DoJE=T BraDBF=F KetDBF=T FulRan=T
         wScrn=  0.000000 ICntrl=       500 IOpCl=  0 I1Cent=   200000004 NGrid=           0
         NMat0=    1 NMatS0=      1 NMatT0=    0 NMatD0=    1 NMtDS0=    0 NMtDT0=    0
 Petite list used in FoFCou.
 Keep R1 ints in memory in canonical form, NReq=198772518.
 Requested convergence on RMS density matrix=1.00D-08 within  32 cycles.
 Requested convergence on MAX density matrix=1.00D-06.
 Requested convergence on             energy=1.00D-06.
 No special actions if energy rises.
 SCF Done:  E(RB3LYP) =  -232.317085134     A.U. after    9 cycles
            NFock=  9  Conv=0.23D-08     -V/T= 2.0051
 QCSCF skips out because SCF is already converged.

 **********************************************************************

            Population analysis using the SCF Density.

 **********************************************************************

 Orbital symmetries:
       Occupied  (A) (A) (A) (A) (A) (A) (A) (A) (A) (A) (A) (A)
                 (A) (A) (A) (A) (A) (A) (A) (A) (A)
       Virtual   (A) (A) (A) (A) (A) (A) (A) (A) (A) (A) (A) (A)
                 (A) (A) (A) (A) (A) (A) (A) (A) (A) (A) (A) (A)
                 (A) (A) (A) (A) (A) (A) (A) (A) (A) (A) (A) (A)
                 (A) (A) (A) (A) (A) (A) (A) (A) (A) (A) (A) (A)
                 (A) (A) (A) (A) (A) (A) (A) (A) (A) (A) (A) (A)
                 (A) (A) (A) (A) (A) (A) (A) (A) (A) (A) (A) (A)
                 (A) (A) (A) (A) (A) (A) (A) (A) (A) (A) (A) (A)
                 (A) (A) (A) (A) (A) (A) (A) (A) (A) (A) (A) (A)
                 (A) (A) (A) (A) (A) (A) (A) (A) (A) (A) (A) (A)
                 (A) (A) (A) (A) (A) (A) (A) (A) (A) (A) (A) (A)
                 (A) (A) (A) (A) (A) (A) (A) (A) (A) (A) (A) (A)
                 (A) (A) (A) (A) (A) (A) (A) (A) (A) (A) (A) (A)
                 (A) (A) (A) (A) (A) (A) (A) (A) (A) (A) (A) (A)
                 (A) (A) (A) (A) (A) (A) (A) (A) (A) (A) (A) (A)
                 (A) (A) (A) (A) (A) (A) (A) (A) (A)
 The electronic state is 1-A.
 Alpha  occ. eigenvalues --  -10.17944 -10.17921 -10.17921 -10.17864 -10.17864
 Alpha  occ. eigenvalues --  -10.17838  -0.85714  -0.74981  -0.74981  -0.60705
 Alpha  occ. eigenvalues --   -0.60705  -0.52761  -0.46615  -0.45210  -0.42676
 Alpha  occ. eigenvalues --   -0.42676  -0.37127  -0.35068  -0.35067  -0.25911
 Alpha  occ. eigenvalues --   -0.25911
 Alpha virt. eigenvalues --   -0.01849  -0.01849   0.00448   0.02321   0.02321
 Alpha virt. eigenvalues --    0.04485   0.04485   0.06250   0.07214   0.07727
 Alpha virt. eigenvalues --    0.08921   0.08921   0.09805   0.12278   0.13936
 Alpha virt. eigenvalues --    0.13936   0.14094   0.14094   0.14517   0.14518
 Alpha virt. eigenvalues --    0.16881   0.19429   0.19429   0.19886   0.20594
 Alpha virt. eigenvalues --    0.20595   0.20662   0.20662   0.22331   0.23104
 Alpha virt. eigenvalues --    0.23104   0.26478   0.27786   0.31716   0.31716
 Alpha virt. eigenvalues --    0.31963   0.31963   0.39639   0.44760   0.45492
 Alpha virt. eigenvalues --    0.48615   0.51143   0.51143   0.52065   0.52065
 Alpha virt. eigenvalues --    0.53068   0.53594   0.53595   0.53773   0.54006
 Alpha virt. eigenvalues --    0.60774   0.60774   0.63857   0.63857   0.64211
 Alpha virt. eigenvalues --    0.64755   0.64755   0.65966   0.66595   0.70643
 Alpha virt. eigenvalues --    0.76250   0.76250   0.77056   0.77056   0.79741
 Alpha virt. eigenvalues --    0.81359   0.81359   0.81912   0.81912   0.82747
 Alpha virt. eigenvalues --    0.83700   0.83700   0.85013   0.99731   0.99731
 Alpha virt. eigenvalues --    1.10093   1.12080   1.12080   1.18216   1.21654
 Alpha virt. eigenvalues --    1.22483   1.22483   1.28193   1.30282   1.30282
 Alpha virt. eigenvalues --    1.32342   1.32343   1.33573   1.33574   1.46911
 Alpha virt. eigenvalues --    1.50644   1.50644   1.52209   1.52210   1.55603
 Alpha virt. eigenvalues --    1.55926   1.55926   1.58373   1.61798   1.77325
 Alpha virt. eigenvalues --    1.77325   1.88206   1.91945   1.98405   1.98405
 Alpha virt. eigenvalues --    2.14873   2.20940   2.31090   2.31091   2.32699
 Alpha virt. eigenvalues --    2.32699   2.56991   2.62230   2.64121   2.64121
 Alpha virt. eigenvalues --    2.66271   2.73916   2.73916   2.75032   2.75032
 Alpha virt. eigenvalues --    2.77542   2.83614   2.83614   2.83673   2.83673
 Alpha virt. eigenvalues --    2.97529   2.97529   2.98426   3.05870   3.09350
 Alpha virt. eigenvalues --    3.10530   3.11439   3.14941   3.22857   3.22857
 Alpha virt. eigenvalues --    3.28701   3.30016   3.30017   3.30211   3.30212
 Alpha virt. eigenvalues --    3.36345   3.36345   3.39378   3.44063   3.44064
 Alpha virt. eigenvalues --    3.55400   3.55401   3.56548   3.56549   3.59287
 Alpha virt. eigenvalues --    3.59288   3.64991   3.72589   3.72589   3.73319
 Alpha virt. eigenvalues --    3.77365   3.77365   3.82157   3.84925   3.87077
 Alpha virt. eigenvalues --    3.92091   3.93496   3.93496   3.99271   3.99272
 Alpha virt. eigenvalues --    4.50937   4.50937   4.61483   4.81011   4.81012
 Alpha virt. eigenvalues --    5.26047  23.60855  23.96809  23.96810  24.04553
 Alpha virt. eigenvalues --   24.04554  24.09927
          Condensed to atoms (all electrons):
               1          2          3          4          5          6
     1  C    4.964366   0.402557   0.091626  -0.201811   0.091622   0.402702
     2  C    0.402557   4.964340   0.402712   0.091622  -0.201804   0.091622
     3  C    0.091626   0.402712   4.964348   0.402552   0.091623  -0.201805
     4  C   -0.201811   0.091622   0.402552   4.964364   0.402713   0.091625
     5  C    0.091622  -0.201804   0.091623   0.402713   4.964340   0.402559
     6  C    0.402702   0.091622  -0.201805   0.091625   0.402559   4.964348
     7  H    0.431729  -0.070872   0.026058  -0.007981   0.026059  -0.070846
     8  H   -0.070871   0.431727  -0.070845   0.026060  -0.007981   0.026057
     9  H    0.026058  -0.070843   0.431724  -0.070869   0.026058  -0.007981
    10  H   -0.007980   0.026057  -0.070870   0.431727  -0.070845   0.026059
    11  H    0.026059  -0.007980   0.026058  -0.070845   0.431726  -0.070870
    12  H   -0.070845   0.026060  -0.007981   0.026057  -0.070868   0.431725
               7          8          9         10         11         12
     1  C    0.431729  -0.070871   0.026058  -0.007980   0.026059  -0.070845
     2  C   -0.070872   0.431727  -0.070843   0.026057  -0.007980   0.026060
     3  C    0.026058  -0.070845   0.431724  -0.070870   0.026058  -0.007981
     4  C   -0.007981   0.026060  -0.070869   0.431727  -0.070845   0.026057
     5  C    0.026059  -0.007981   0.026058  -0.070845   0.431726  -0.070868
     6  C   -0.070846   0.026057  -0.007981   0.026059  -0.070870   0.431725
     7  H    0.592845  -0.005752  -0.000396   0.000104  -0.000396  -0.005754
     8  H   -0.005752   0.592845  -0.005754  -0.000396   0.000104  -0.000396
     9  H   -0.000396  -0.005754   0.592842  -0.005752  -0.000396   0.000104
    10  H    0.000104  -0.000396  -0.005752   0.592843  -0.005754  -0.000396
    11  H   -0.000396   0.000104  -0.000396  -0.005754   0.592844  -0.005752
    12  H   -0.005754  -0.000396   0.000104  -0.000396  -0.005752   0.592843
 Mulliken charges:
               1
     1  C   -0.085211
     2  C   -0.085198
     3  C   -0.085198
     4  C   -0.085214
     5  C   -0.085202
     6  C   -0.085195
     7  H    0.085202
     8  H    0.085202
     9  H    0.085204
    10  H    0.085203
    11  H    0.085203
    12  H    0.085204
 Sum of Mulliken charges =   0.00000
 Mulliken charges with hydrogens summed into heavy atoms:
               1
     1  C   -0.000009
     2  C    0.000004
     3  C    0.000006
     4  C   -0.000011
     5  C    0.000001
     6  C    0.000009
 Electronic spatial extent (au):  <R**2>=            461.8288
 Charge=              0.0000 electrons
 Dipole moment (field-independent basis, Debye):
    X=              0.0000    Y=              0.0000    Z=              0.0000  Tot=              0.0000
 Quadrupole moment (field-independent basis, Debye-Ang):
   XX=            -32.1356   YY=            -32.1356   ZZ=            -40.3150
   XY=              0.0000   XZ=              0.0000   YZ=              0.0000
 Traceless Quadrupole moment (field-independent basis, Debye-Ang):
   XX=              2.7265   YY=              2.7265   ZZ=             -5.4529
   XY=              0.0000   XZ=              0.0000   YZ=              0.0000
 Octapole moment (field-independent basis, Debye-Ang**2):
  XXX=             -0.0021  YYY=              0.0003  ZZZ=              0.0000  XYY=              0.0021
  XXY=             -0.0003  XXZ=              0.0000  XZZ=              0.0000  YZZ=              0.0000
  YYZ=              0.0000  XYZ=              0.0001
 Hexadecapole moment (field-independent basis, Debye-Ang**3):
 XXXX=           -278.5386 YYYY=           -278.5378 ZZZZ=            -50.3882 XXXY=              0.0001
 XXXZ=              0.0002 YYYX=              0.0003 YYYZ=              0.0002 ZZZX=              0.0000
 ZZZY=              0.0000 XXYY=            -92.8461 XXZZ=            -65.5841 YYZZ=            -65.5840
 XXYZ=             -0.0002 YYXZ=              0.0000 ZZXY=              0.0000
 N-N= 2.028830166392D+02 E-N=-9.442168095563D+02  KE= 2.311442887641D+02
 Calling FoFJK, ICntrl=      2127 FMM=F ISym2X=0 I1Cent= 0 IOpClX= 0 NMat=1 NMatS=1 NMatT=0.
 ***** Axes restored to original set *****
 -------------------------------------------------------------------
 Center     Atomic                   Forces (Hartrees/Bohr)
 Number     Number              X              Y              Z
 -------------------------------------------------------------------
      1        6          -0.000112060    0.003556786   -0.000000571
      2        6          -0.003173829    0.001599234    0.000002300
      3        6          -0.003037327   -0.001866497   -0.000001351
      4        6           0.000211972   -0.003555469    0.000000808
      5        6           0.003131105   -0.001685516    0.000000190
      6        6           0.002980435    0.001951331   -0.000001009
      7        1          -0.000140159    0.003053217    0.000000489
      8        1          -0.002709614    0.001417796   -0.000000753
      9        1          -0.002573823   -0.001648444    0.000000120
     10        1           0.000126302   -0.003054672   -0.000000599
     11        1           0.002716145   -0.001404944    0.000000751
     12        1           0.002580851    0.001637177   -0.000000375
 -------------------------------------------------------------------
 Cartesian Forces:  Max     0.003556786 RMS     0.001915581

 GradGradGradGradGradGradGradGradGradGradGradGradGradGradGradGradGradGrad
 Berny optimization.
 FormGI is forming the generalized inverse of G from B-inverse, IUseBI=4.
 Internal  Forces:  Max     0.006647496 RMS     0.002429510
 Search for a local minimum.
 Step number   1 out of a maximum of   64
 All quantities printed in internal units (Hartrees-Bohrs-Radians)
 Mixed Optimization -- RFO/linear search
 Second derivative matrix not updated -- first step.
 ITU=  0
     Eigenvalues ---    0.02104   0.02104   0.02104   0.02104   0.02104
     Eigenvalues ---    0.02104   0.02104   0.02105   0.02105   0.16000
     Eigenvalues ---    0.16000   0.16000   0.16000   0.16000   0.16000
     Eigenvalues ---    0.22000   0.22000   0.22000   0.35029   0.35029
     Eigenvalues ---    0.35029   0.35029   0.35029   0.35030   0.41607
     Eigenvalues ---    0.41607   0.45806   0.45816   0.45817   0.45826
 RFO step:  Lambda=-7.32124720D-04 EMin= 2.10385400D-02
 Linear search not attempted -- first point.
 Iteration  1 RMS(Cart)=  0.00908445 RMS(Int)=  0.00000010
 Iteration  2 RMS(Cart)=  0.00000013 RMS(Int)=  0.00000000
 Variable       Old X    -DE/DX   Delta X   Delta X   Delta X     New X
                                 (Linear)    (Quad)   (Total)
    R1        2.64350  -0.00664   0.00000  -0.01447  -0.01447   2.62903
    R2        2.64328  -0.00659   0.00000  -0.01437  -0.01437   2.62892
    R3        2.05627  -0.00306   0.00000  -0.00871  -0.00871   2.04756
    R4        2.64327  -0.00659   0.00000  -0.01436  -0.01436   2.62892
    R5        2.05628  -0.00306   0.00000  -0.00871  -0.00871   2.04756
    R6        2.64352  -0.00665   0.00000  -0.01449  -0.01449   2.62903
    R7        2.05627  -0.00306   0.00000  -0.00871  -0.00871   2.04756
    R8        2.64328  -0.00659   0.00000  -0.01436  -0.01436   2.62892
    R9        2.05627  -0.00306   0.00000  -0.00871  -0.00871   2.04756
   R10        2.64350  -0.00664   0.00000  -0.01447  -0.01447   2.62903
   R11        2.05627  -0.00306   0.00000  -0.00871  -0.00871   2.04756
   R12        2.05627  -0.00306   0.00000  -0.00871  -0.00871   2.04756
    A1        2.09440   0.00000   0.00000   0.00000   0.00000   2.09439
    A2        2.09432   0.00001   0.00000   0.00004   0.00004   2.09436
    A3        2.09447  -0.00001   0.00000  -0.00004  -0.00004   2.09443
    A4        2.09440   0.00000   0.00000   0.00000   0.00000   2.09439
    A5        2.09431   0.00001   0.00000   0.00004   0.00004   2.09435
    A6        2.09448  -0.00001   0.00000  -0.00004  -0.00004   2.09444
    A7        2.09439   0.00000   0.00000   0.00001   0.00001   2.09440
    A8        2.09448  -0.00001   0.00000  -0.00005  -0.00005   2.09443
    A9        2.09431   0.00001   0.00000   0.00004   0.00004   2.09435
   A10        2.09439   0.00000   0.00000   0.00000   0.00000   2.09439
   A11        2.09431   0.00001   0.00000   0.00004   0.00004   2.09435
   A12        2.09449  -0.00001   0.00000  -0.00004  -0.00004   2.09444
   A13        2.09440   0.00000   0.00000   0.00000   0.00000   2.09439
   A14        2.09448  -0.00001   0.00000  -0.00005  -0.00005   2.09443
   A15        2.09431   0.00001   0.00000   0.00005   0.00005   2.09436
   A16        2.09439   0.00000   0.00000   0.00000   0.00000   2.09440
   A17        2.09447  -0.00001   0.00000  -0.00004  -0.00004   2.09443
   A18        2.09432   0.00001   0.00000   0.00003   0.00003   2.09435
    D1        0.00001   0.00000   0.00000  -0.00001  -0.00001   0.00000
    D2        3.14158   0.00000   0.00000   0.00002   0.00002  -3.14159
    D3       -3.14159   0.00000   0.00000  -0.00001  -0.00001   3.14159
    D4       -0.00002   0.00000   0.00000   0.00002   0.00002   0.00000
    D5        0.00001   0.00000   0.00000  -0.00001  -0.00001   0.00000
    D6       -3.14159   0.00000   0.00000   0.00000   0.00000  -3.14159
    D7       -3.14158   0.00000   0.00000  -0.00002  -0.00002   3.14159
    D8        0.00001   0.00000   0.00000  -0.00001  -0.00001   0.00001
    D9       -0.00002   0.00000   0.00000   0.00003   0.00003   0.00000
   D10        3.14158   0.00000   0.00000   0.00001   0.00001  -3.14159
   D11       -3.14159   0.00000   0.00000   0.00000   0.00000  -3.14159
   D12        0.00002   0.00000   0.00000  -0.00002  -0.00002   0.00000
   D13        0.00001   0.00000   0.00000  -0.00002  -0.00002   0.00000
   D14       -3.14159   0.00000   0.00000   0.00000   0.00000   3.14159
   D15       -3.14159   0.00000   0.00000   0.00000   0.00000  -3.14159
   D16       -0.00001   0.00000   0.00000   0.00001   0.00001   0.00000
   D17        0.00001   0.00000   0.00000  -0.00001  -0.00001   0.00000
   D18       -3.14158   0.00000   0.00000  -0.00001  -0.00001  -3.14159
   D19       -3.14157   0.00000   0.00000  -0.00002  -0.00002   3.14159
   D20        0.00002   0.00000   0.00000  -0.00002  -0.00002   0.00001
   D21       -0.00002   0.00000   0.00000   0.00002   0.00002   0.00001
   D22        3.14158   0.00000   0.00000   0.00001   0.00001   3.14159
   D23        3.14157   0.00000   0.00000   0.00002   0.00002   3.14159
   D24       -0.00002   0.00000   0.00000   0.00001   0.00001  -0.00001
         Item               Value     Threshold  Converged?
 Maximum Force            0.006647     0.000450     NO 
 RMS     Force            0.002430     0.000300     NO 
 Maximum Displacement     0.023108     0.001800     NO 
 RMS     Displacement     0.009084     0.001200     NO 
 Predicted change in Energy=-3.666866D-04
 GradGradGradGradGradGradGradGradGradGradGradGradGradGradGradGradGradGrad

                          Input orientation:                          
 ---------------------------------------------------------------------
 Center     Atomic      Atomic             Coordinates (Angstroms)
 Number     Number       Type             X           Y           Z
 ---------------------------------------------------------------------
      1          6           0        0.060966   -1.389859    0.000001
      2          6           0        1.234150   -0.642100    0.000004
      3          6           0        1.173165    0.747726    0.000001
      4          6           0       -0.061000    1.389856    0.000001
      5          6           0       -1.234134    0.642129    0.000001
      6          6           0       -1.173147   -0.747755   -0.000003
      7          1           0        0.108500   -2.472338   -0.000001
      8          1           0        2.195334   -1.142249    0.000005
      9          1           0        2.086852    1.330135    0.000002
     10          1           0       -0.108447    2.472340    0.000002
     11          1           0       -2.195358    1.142201   -0.000003
     12          1           0       -2.086880   -1.330091   -0.000001
 ---------------------------------------------------------------------
                    Distance matrix (angstroms):
                    1          2          3          4          5
     1  C    0.000000
     2  C    1.391223   0.000000
     3  C    2.409617   1.391163   0.000000
     4  C    2.782389   2.409618   1.391221   0.000000
     5  C    2.409618   2.782385   2.409614   1.391165   0.000000
     6  C    1.391162   2.409614   2.782381   2.409617   1.391222
     7  H    1.083523   2.148688   3.391508   3.865912   3.391545
     8  H    2.148682   1.083524   2.148682   3.391548   3.865909
     9  H    3.391545   2.148677   1.083524   2.148682   3.391504
    10  H    3.865912   3.391504   2.148679   1.083523   2.148684
    11  H    3.391508   3.865909   3.391542   2.148678   1.083524
    12  H    2.148678   3.391544   3.865905   3.391505   2.148681
                    6          7          8          9         10
     6  C    0.000000
     7  H    2.148675   0.000000
     8  H    3.391502   2.474675   0.000000
     9  H    3.865905   4.286336   2.474763   0.000000
    10  H    3.391548   4.949435   4.286334   2.474665   0.000000
    11  H    2.148686   4.286334   4.949433   4.286332   2.474766
    12  H    1.083524   2.474757   4.286332   4.949428   4.286336
                   11         12
    11  H    0.000000
    12  H    2.474671   0.000000
 Stoichiometry    C6H6
 Framework group  C1[X(C6H6)]
 Deg. of freedom    30
 Full point group                 C1      NOp   1
 Largest Abelian subgroup         C1      NOp   1
 Largest concise Abelian subgroup C1      NOp   1
                         Standard orientation:                         
 ---------------------------------------------------------------------
 Center     Atomic      Atomic             Coordinates (Angstroms)
 Number     Number       Type             X           Y           Z
 ---------------------------------------------------------------------
      1          6           0        1.390625   -0.039793    0.000000
      2          6           0        0.729744    1.184437    0.000003
      3          6           0       -0.660851    1.224209    0.000000
      4          6           0       -1.390626    0.039759    0.000000
      5          6           0       -0.729773   -1.184419    0.000000
      6          6           0        0.660880   -1.224193   -0.000003
      7          1           0        2.473707   -0.070734   -0.000002
      8          1           0        1.298152    2.106899    0.000004
      9          1           0       -1.175599    2.177654    0.000001
     10          1           0       -2.473705    0.070787    0.000002
     11          1           0       -1.298107   -2.106927   -0.000003
     12          1           0        1.175552   -2.177679   -0.000002
 ---------------------------------------------------------------------
 Rotational constants (GHZ):           5.7304870           5.7304671           2.8652385
 Standard basis: 6-311+G(2d,p) (5D, 7F)
 There are   210 symmetry adapted cartesian basis functions of A   symmetry.
 There are   198 symmetry adapted basis functions of A   symmetry.
   198 basis functions,   300 primitive gaussians,   210 cartesian basis functions
    21 alpha electrons       21 beta electrons
       nuclear repulsion energy       203.9580090713 Hartrees.
 NAtoms=   12 NActive=   12 NUniq=   12 SFac= 1.00D+00 NAtFMM=   60 NAOKFM=F Big=F
 Integral buffers will be    131072 words long.
 Raffenetti 2 integral format.
 Two-electron integral symmetry is turned on.
 One-electron integrals computed using PRISM.
 NBasis=   198 RedAO= T EigKep=  3.92D-06  NBF=   198
 NBsUse=   198 1.00D-06 EigRej= -1.00D+00 NBFU=   198
 Initial guess from the checkpoint file:  "benzene.chk"
 B after Tr=     0.000000    0.000000    0.000000
         Rot=    0.732731    0.000000    0.000000   -0.680518 Ang= -85.77 deg.
 ExpMin= 4.38D-02 ExpMax= 4.56D+03 ExpMxC= 6.82D+02 IAcc=3 IRadAn=         5 AccDes= 0.00D+00
 Harris functional with IExCor=  402 and IRadAn=       5 diagonalized for initial guess.
 HarFok:  IExCor=  402 AccDes= 0.00D+00 IRadAn=         5 IDoV= 1 UseB2=F ITyADJ=14
 ICtDFT=  3500011 ScaDFX=  1.000000  1.000000  1.000000  1.000000
 FoFCou: FMM=F IPFlag=           0 FMFlag=      100000 FMFlg1=           0
         NFxFlg=           0 DoJE=T BraDBF=F KetDBF=T FulRan=T
         wScrn=  0.000000 ICntrl=       500 IOpCl=  0 I1Cent=   200000004 NGrid=           0
         NMat0=    1 NMatS0=      1 NMatT0=    0 NMatD0=    1 NMtDS0=    0 NMtDT0=    0
 Petite list used in FoFCou.
 Keep R1 ints in memory in canonical form, NReq=198772518.
 Requested convergence on RMS density matrix=1.00D-08 within  32 cycles.
 Requested convergence on MAX density matrix=1.00D-06.
 Requested convergence on             energy=1.00D-06.
 No special actions if energy rises.
 SCF Done:  E(RB3LYP) =  -232.317420868     A.U. after    8 cycles
            NFock=  8  Conv=0.13D-08     -V/T= 2.0044
 QCSCF skips out because SCF is already converged.
 Calling FoFJK, ICntrl=      2127 FMM=F ISym2X=0 I1Cent= 0 IOpClX= 0 NMat=1 NMatS=1 NMatT=0.
 ***** Axes restored to original set *****
 -------------------------------------------------------------------
 Center     Atomic                   Forces (Hartrees/Bohr)
 Number     Number              X              Y              Z
 -------------------------------------------------------------------
      1        6           0.000049136   -0.000471197   -0.000000199
      2        6           0.000404062   -0.000243592   -0.000000324
      3        6           0.000389760    0.000274433    0.000000279
      4        6           0.000002865    0.000473314    0.000000130
      5        6          -0.000427889    0.000197509   -0.000000613
      6        6          -0.000417911   -0.000230652    0.000000666
      7        1           0.000004880   -0.000173267    0.000000109
      8        1           0.000155542   -0.000076756    0.000000034
      9        1           0.000148020    0.000090660    0.000000009
     10        1          -0.000011376    0.000173109   -0.000000077
     11        1          -0.000152627    0.000082513    0.000000197
     12        1          -0.000144462   -0.000096072   -0.000000212
 -------------------------------------------------------------------
 Cartesian Forces:  Max     0.000473314 RMS     0.000206075

 GradGradGradGradGradGradGradGradGradGradGradGradGradGradGradGradGradGrad
 Berny optimization.
 Using GEDIIS/GDIIS optimizer.
 FormGI is forming the generalized inverse of G from B-inverse, IUseBI=4.
 Internal  Forces:  Max     0.000662287 RMS     0.000223250
 Search for a local minimum.
 Step number   2 out of a maximum of   64
 All quantities printed in internal units (Hartrees-Bohrs-Radians)
 Mixed Optimization -- En-DIIS/RFO-DIIS
 Update second derivatives using D2CorX and points    1    2
 DE= -3.36D-04 DEPred=-3.67D-04 R= 9.16D-01
 TightC=F SS=  1.41D+00  RLast= 4.13D-02 DXNew= 5.0454D-01 1.2378D-01
 Trust test= 9.16D-01 RLast= 4.13D-02 DXMaxT set to 3.00D-01
 ITU=  1  0
 Use linear search instead of GDIIS.
     Eigenvalues ---    0.02104   0.02104   0.02104   0.02104   0.02104
     Eigenvalues ---    0.02104   0.02104   0.02105   0.02105   0.16000
     Eigenvalues ---    0.16000   0.16000   0.16000   0.16000   0.16000
     Eigenvalues ---    0.22000   0.22000   0.22000   0.35029   0.35029
     Eigenvalues ---    0.35029   0.35029   0.35030   0.35159   0.41569
     Eigenvalues ---    0.41569   0.45814   0.45816   0.45817   0.49788
 RFO step:  Lambda=-1.85345908D-07 EMin= 2.10385399D-02
 Quartic linear search produced a step of -0.08034.
 Iteration  1 RMS(Cart)=  0.00071175 RMS(Int)=  0.00000000
 Iteration  2 RMS(Cart)=  0.00000000 RMS(Int)=  0.00000000
 Variable       Old X    -DE/DX   Delta X   Delta X   Delta X     New X
                                 (Linear)    (Quad)   (Total)
    R1        2.62903   0.00063   0.00116   0.00008   0.00125   2.63028
    R2        2.62892   0.00066   0.00115   0.00015   0.00131   2.63022
    R3        2.04756   0.00017   0.00070  -0.00026   0.00044   2.04800
    R4        2.62892   0.00066   0.00115   0.00015   0.00130   2.63022
    R5        2.04756   0.00017   0.00070  -0.00026   0.00044   2.04800
    R6        2.62903   0.00064   0.00116   0.00009   0.00125   2.63028
    R7        2.04756   0.00017   0.00070  -0.00026   0.00044   2.04800
    R8        2.62892   0.00066   0.00115   0.00014   0.00130   2.63022
    R9        2.04756   0.00017   0.00070  -0.00026   0.00044   2.04800
   R10        2.62903   0.00063   0.00116   0.00009   0.00125   2.63028
   R11        2.04756   0.00017   0.00070  -0.00026   0.00044   2.04800
   R12        2.04756   0.00017   0.00070  -0.00026   0.00044   2.04800
    A1        2.09439   0.00000   0.00000   0.00000   0.00000   2.09439
    A2        2.09436   0.00000   0.00000   0.00002   0.00001   2.09437
    A3        2.09443   0.00000   0.00000  -0.00002  -0.00001   2.09442
    A4        2.09439   0.00000   0.00000   0.00000   0.00000   2.09440
    A5        2.09435   0.00000   0.00000   0.00003   0.00002   2.09437
    A6        2.09444   0.00000   0.00000  -0.00003  -0.00003   2.09441
    A7        2.09440   0.00000   0.00000  -0.00001  -0.00001   2.09439
    A8        2.09443   0.00000   0.00000  -0.00002  -0.00001   2.09442
    A9        2.09435   0.00000   0.00000   0.00002   0.00002   2.09437
   A10        2.09439   0.00000   0.00000   0.00000   0.00000   2.09439
   A11        2.09435   0.00000   0.00000   0.00003   0.00002   2.09438
   A12        2.09444   0.00000   0.00000  -0.00003  -0.00003   2.09442
   A13        2.09439   0.00000   0.00000   0.00000   0.00000   2.09440
   A14        2.09443   0.00000   0.00000  -0.00002  -0.00002   2.09442
   A15        2.09436   0.00000   0.00000   0.00002   0.00001   2.09437
   A16        2.09440   0.00000   0.00000  -0.00001  -0.00001   2.09439
   A17        2.09443   0.00000   0.00000  -0.00002  -0.00002   2.09442
   A18        2.09435   0.00000   0.00000   0.00003   0.00003   2.09438
    D1        0.00000   0.00000   0.00000   0.00000   0.00000   0.00000
    D2       -3.14159   0.00000   0.00000   0.00000   0.00000  -3.14159
    D3        3.14159   0.00000   0.00000   0.00000   0.00000  -3.14159
    D4        0.00000   0.00000   0.00000   0.00000   0.00000   0.00000
    D5        0.00000   0.00000   0.00000   0.00000   0.00000   0.00000
    D6       -3.14159   0.00000   0.00000   0.00000   0.00000  -3.14159
    D7        3.14159   0.00000   0.00000   0.00000   0.00000  -3.14159
    D8        0.00001   0.00000   0.00000  -0.00001  -0.00001   0.00000
    D9        0.00000   0.00000   0.00000   0.00000   0.00000   0.00000
   D10       -3.14159   0.00000   0.00000   0.00000   0.00000   3.14159
   D11       -3.14159   0.00000   0.00000   0.00000   0.00000   3.14159
   D12        0.00000   0.00000   0.00000   0.00000   0.00000   0.00000
   D13        0.00000   0.00000   0.00000   0.00000   0.00000   0.00000
   D14        3.14159   0.00000   0.00000   0.00000   0.00000  -3.14159
   D15       -3.14159   0.00000   0.00000   0.00000   0.00000   3.14159
   D16        0.00000   0.00000   0.00000   0.00000   0.00000   0.00000
   D17        0.00000   0.00000   0.00000   0.00000   0.00000   0.00000
   D18       -3.14159   0.00000   0.00000   0.00000   0.00000  -3.14159
   D19        3.14159   0.00000   0.00000   0.00000   0.00000  -3.14159
   D20        0.00001   0.00000   0.00000  -0.00001  -0.00001   0.00000
   D21        0.00001   0.00000   0.00000   0.00000  -0.00001   0.00000
   D22        3.14159   0.00000   0.00000   0.00000   0.00000   3.14159
   D23        3.14159   0.00000   0.00000   0.00000   0.00000   3.14159
   D24       -0.00001   0.00000   0.00000   0.00001   0.00001   0.00000
         Item               Value     Threshold  Converged?
 Maximum Force            0.000662     0.000450     NO 
 RMS     Force            0.000223     0.000300     YES
 Maximum Displacement     0.001709     0.001800     YES
 RMS     Displacement     0.000712     0.001200     YES
 Predicted change in Energy=-2.740633D-06
 GradGradGradGradGradGradGradGradGradGradGradGradGradGradGradGradGradGrad

                          Input orientation:                          
 ---------------------------------------------------------------------
 Center     Atomic      Atomic             Coordinates (Angstroms)
 Number     Number       Type             X           Y           Z
 ---------------------------------------------------------------------
      1          6           0        0.061002   -1.390531    0.000000
      2          6           0        1.234742   -0.642419    0.000002
      3          6           0        1.173734    0.748094    0.000003
      4          6           0       -0.061020    1.390529    0.000001
      5          6           0       -1.234734    0.642434   -0.000001
      6          6           0       -1.173724   -0.748110   -0.000001
      7          1           0        0.108531   -2.473243    0.000000
      8          1           0        2.196143   -1.142654    0.000003
      9          1           0        2.087627    1.330611    0.000004
     10          1           0       -0.108504    2.473243    0.000001
     11          1           0       -2.196155    1.142629   -0.000002
     12          1           0       -2.087641   -1.330589   -0.000001
 ---------------------------------------------------------------------
                    Distance matrix (angstroms):
                    1          2          3          4          5
     1  C    0.000000
     2  C    1.391882   0.000000
     3  C    2.410786   1.391851   0.000000
     4  C    2.783736   2.410784   1.391884   0.000000
     5  C    2.410784   2.783731   2.410784   1.391851   0.000000
     6  C    1.391853   2.410784   2.783736   2.410786   1.391882
     7  H    1.083754   2.149480   3.392885   3.867491   3.392905
     8  H    2.149481   1.083755   2.149476   3.392905   3.867487
     9  H    3.392908   2.149480   1.083755   2.149482   3.392885
    10  H    3.867491   3.392884   2.149482   1.083754   2.149477
    11  H    3.392884   3.867487   3.392906   2.149478   1.083755
    12  H    2.149479   3.392905   3.867492   3.392887   2.149482
                    6          7          8          9         10
     6  C    0.000000
     7  H    2.149480   0.000000
     8  H    3.392885   2.475598   0.000000
     9  H    3.867492   4.287904   2.475645   0.000000
    10  H    3.392906   4.951245   4.287903   2.475601   0.000000
    11  H    2.149479   4.287903   4.951242   4.287904   2.475645
    12  H    1.083755   2.475648   4.287904   4.951247   4.287904
                   11         12
    11  H    0.000000
    12  H    2.475598   0.000000
 Stoichiometry    C6H6
 Framework group  C1[X(C6H6)]
 Deg. of freedom    30
 Full point group                 C1      NOp   1
 Largest Abelian subgroup         C1      NOp   1
 Largest concise Abelian subgroup C1      NOp   1
                         Standard orientation:                         
 ---------------------------------------------------------------------
 Center     Atomic      Atomic             Coordinates (Angstroms)
 Number     Number       Type             X           Y           Z
 ---------------------------------------------------------------------
      1          6           0        1.125526    0.818833    0.000000
      2          6           0       -0.146384    1.384147    0.000001
      3          6           0       -1.271893    0.565319    0.000002
      4          6           0       -1.125516   -0.818847    0.000000
      5          6           0        0.146366   -1.384148   -0.000002
      6          6           0        1.271900   -0.565302   -0.000001
      7          1           0        2.001880    1.456428   -0.000001
      8          1           0       -0.260336    2.461895    0.000002
      9          1           0       -2.262244    1.005467    0.000003
     10          1           0       -2.001896   -1.456406    0.000001
     11          1           0        0.260363   -2.461892   -0.000003
     12          1           0        2.262233   -1.005492   -0.000002
 ---------------------------------------------------------------------
 Rotational constants (GHZ):           5.7252135           5.7252032           2.8626042
 Standard basis: 6-311+G(2d,p) (5D, 7F)
 There are   210 symmetry adapted cartesian basis functions of A   symmetry.
 There are   198 symmetry adapted basis functions of A   symmetry.
   198 basis functions,   300 primitive gaussians,   210 cartesian basis functions
    21 alpha electrons       21 beta electrons
       nuclear repulsion energy       203.8674795023 Hartrees.
 NAtoms=   12 NActive=   12 NUniq=   12 SFac= 1.00D+00 NAtFMM=   60 NAOKFM=F Big=F
 Integral buffers will be    131072 words long.
 Raffenetti 2 integral format.
 Two-electron integral symmetry is turned on.
 One-electron integrals computed using PRISM.
 NBasis=   198 RedAO= T EigKep=  3.94D-06  NBF=   198
 NBsUse=   198 1.00D-06 EigRej= -1.00D+00 NBFU=   198
 Initial guess from the checkpoint file:  "benzene.chk"
 B after Tr=     0.000000    0.000000    0.000000
         Rot=    0.946438    0.000000    0.000000   -0.322886 Ang=  37.68 deg.
 Keep R1 ints in memory in canonical form, NReq=198772518.
 Requested convergence on RMS density matrix=1.00D-08 within  32 cycles.
 Requested convergence on MAX density matrix=1.00D-06.
 Requested convergence on             energy=1.00D-06.
 No special actions if energy rises.
 SCF Done:  E(RB3LYP) =  -232.317424980     A.U. after    6 cycles
            NFock=  6  Conv=0.19D-08     -V/T= 2.0045
 QCSCF skips out because SCF is already converged.
 Calling FoFJK, ICntrl=      2127 FMM=F ISym2X=0 I1Cent= 0 IOpClX= 0 NMat=1 NMatS=1 NMatT=0.
 ***** Axes restored to original set *****
 -------------------------------------------------------------------
 Center     Atomic                   Forces (Hartrees/Bohr)
 Number     Number              X              Y              Z
 -------------------------------------------------------------------
      1        6           0.000009513    0.000006655   -0.000000007
      2        6          -0.000012086   -0.000009962    0.000000034
      3        6          -0.000016616    0.000010637   -0.000000063
      4        6           0.000017721   -0.000005486    0.000000010
      5        6          -0.000000442   -0.000014158    0.000000039
      6        6           0.000001928    0.000012327   -0.000000016
      7        1          -0.000001394   -0.000002659    0.000000010
      8        1           0.000002930    0.000000266    0.000000000
      9        1           0.000002269   -0.000000459    0.000000015
     10        1          -0.000001951    0.000002510   -0.000000009
     11        1          -0.000001402    0.000002690    0.000000007
     12        1          -0.000000470   -0.000002361   -0.000000021
 -------------------------------------------------------------------
 Cartesian Forces:  Max     0.000017721 RMS     0.000006493

 GradGradGradGradGradGradGradGradGradGradGradGradGradGradGradGradGradGrad
 Berny optimization.
 Using GEDIIS/GDIIS optimizer.
 FormGI is forming the generalized inverse of G from B-inverse, IUseBI=4.
 Internal  Forces:  Max     0.000014770 RMS     0.000003120
 Search for a local minimum.
 Step number   3 out of a maximum of   64
 All quantities printed in internal units (Hartrees-Bohrs-Radians)
 Mixed Optimization -- En-DIIS/RFO-DIIS
 Swapping is turned off.
 Update second derivatives using D2CorX and points    1    2    3
 DE= -4.11D-06 DEPred=-2.74D-06 R= 1.50D+00
 TightC=F SS=  1.41D+00  RLast= 3.30D-03 DXNew= 5.0454D-01 9.9097D-03
 Trust test= 1.50D+00 RLast= 3.30D-03 DXMaxT set to 3.00D-01
 ITU=  1  1  0
     Eigenvalues ---    0.02104   0.02104   0.02104   0.02104   0.02104
     Eigenvalues ---    0.02104   0.02104   0.02105   0.02105   0.15997
     Eigenvalues ---    0.16000   0.16000   0.16000   0.16000   0.16000
     Eigenvalues ---    0.22000   0.22000   0.22000   0.35029   0.35029
     Eigenvalues ---    0.35029   0.35029   0.35030   0.35176   0.41572
     Eigenvalues ---    0.41573   0.45757   0.45816   0.45817   0.50807
 En-DIIS/RFO-DIIS/Sim-DIIS IScMMF=       -3 using points:     3    2
 RFO step:  Lambda=-1.20852159D-09.
 DidBck=F Rises=F RFO-DIIS coefs:    0.99565    0.00435
 Iteration  1 RMS(Cart)=  0.00000720 RMS(Int)=  0.00000000
 Iteration  2 RMS(Cart)=  0.00000000 RMS(Int)=  0.00000000
 Variable       Old X    -DE/DX   Delta X   Delta X   Delta X     New X
                                 (Linear)    (Quad)   (Total)
    R1        2.63028  -0.00001  -0.00001  -0.00002  -0.00002   2.63025
    R2        2.63022   0.00000  -0.00001   0.00000   0.00000   2.63022
    R3        2.04800   0.00000   0.00000   0.00001   0.00001   2.04801
    R4        2.63022   0.00000  -0.00001   0.00002   0.00001   2.63023
    R5        2.04800   0.00000   0.00000   0.00001   0.00001   2.04801
    R6        2.63028  -0.00001  -0.00001  -0.00003  -0.00003   2.63025
    R7        2.04800   0.00000   0.00000   0.00001   0.00001   2.04801
    R8        2.63022   0.00000  -0.00001   0.00001   0.00001   2.63022
    R9        2.04800   0.00000   0.00000   0.00001   0.00001   2.04801
   R10        2.63028  -0.00001  -0.00001  -0.00001  -0.00002   2.63026
   R11        2.04800   0.00000   0.00000   0.00001   0.00001   2.04801
   R12        2.04800   0.00000   0.00000   0.00001   0.00001   2.04801
    A1        2.09439   0.00000   0.00000  -0.00001  -0.00001   2.09439
    A2        2.09437   0.00000   0.00000   0.00001   0.00001   2.09439
    A3        2.09442   0.00000   0.00000  -0.00001  -0.00001   2.09441
    A4        2.09440   0.00000   0.00000   0.00000   0.00000   2.09440
    A5        2.09437   0.00000   0.00000   0.00001   0.00001   2.09438
    A6        2.09441   0.00000   0.00000  -0.00001  -0.00001   2.09440
    A7        2.09439   0.00000   0.00000   0.00000   0.00000   2.09440
    A8        2.09442   0.00000   0.00000  -0.00001  -0.00001   2.09441
    A9        2.09437   0.00000   0.00000   0.00001   0.00001   2.09438
   A10        2.09439   0.00000   0.00000  -0.00001  -0.00001   2.09439
   A11        2.09438   0.00000   0.00000   0.00002   0.00002   2.09439
   A12        2.09442   0.00000   0.00000  -0.00001  -0.00001   2.09441
   A13        2.09440   0.00000   0.00000   0.00000   0.00000   2.09440
   A14        2.09442   0.00000   0.00000  -0.00001  -0.00001   2.09440
   A15        2.09437   0.00000   0.00000   0.00001   0.00001   2.09438
   A16        2.09439   0.00000   0.00000   0.00000   0.00000   2.09440
   A17        2.09442   0.00000   0.00000  -0.00001  -0.00001   2.09440
   A18        2.09438   0.00000   0.00000   0.00001   0.00001   2.09439
    D1        0.00000   0.00000   0.00000   0.00000   0.00000   0.00000
    D2       -3.14159   0.00000   0.00000   0.00000   0.00000  -3.14159
    D3       -3.14159   0.00000   0.00000   0.00000   0.00000   3.14159
    D4        0.00000   0.00000   0.00000   0.00000   0.00000   0.00000
    D5        0.00000   0.00000   0.00000   0.00000   0.00000   0.00000
    D6       -3.14159   0.00000   0.00000   0.00000   0.00000  -3.14159
    D7       -3.14159   0.00000   0.00000   0.00000   0.00000   3.14159
    D8        0.00000   0.00000   0.00000   0.00000   0.00000   0.00000
    D9        0.00000   0.00000   0.00000   0.00000   0.00000   0.00000
   D10        3.14159   0.00000   0.00000   0.00000   0.00000   3.14159
   D11        3.14159   0.00000   0.00000   0.00000   0.00000  -3.14159
   D12        0.00000   0.00000   0.00000   0.00000   0.00000   0.00000
   D13        0.00000   0.00000   0.00000   0.00000   0.00000   0.00000
   D14       -3.14159   0.00000   0.00000   0.00000   0.00000   3.14159
   D15        3.14159   0.00000   0.00000   0.00000   0.00000  -3.14159
   D16        0.00000   0.00000   0.00000   0.00000   0.00000   0.00000
   D17        0.00000   0.00000   0.00000   0.00000   0.00000   0.00000
   D18       -3.14159   0.00000   0.00000   0.00000   0.00000  -3.14159
   D19       -3.14159   0.00000   0.00000   0.00000   0.00000   3.14159
   D20        0.00000   0.00000   0.00000   0.00000   0.00000   0.00000
   D21        0.00000   0.00000   0.00000   0.00000   0.00000   0.00000
   D22        3.14159   0.00000   0.00000   0.00000   0.00000   3.14159
   D23        3.14159   0.00000   0.00000   0.00000   0.00000   3.14159
   D24        0.00000   0.00000   0.00000   0.00000   0.00000   0.00000
         Item               Value     Threshold  Converged?
 Maximum Force            0.000015     0.000450     YES
 RMS     Force            0.000003     0.000300     YES
 Maximum Displacement     0.000020     0.001800     YES
 RMS     Displacement     0.000007     0.001200     YES
 Predicted change in Energy=-6.549852D-10
 Optimization completed.
    -- Stationary point found.
                           ----------------------------
                           !   Optimized Parameters   !
                           ! (Angstroms and Degrees)  !
 --------------------------                            --------------------------
 ! Name  Definition              Value          Derivative Info.                !
 --------------------------------------------------------------------------------
 ! R1    R(1,2)                  1.3919         -DE/DX =    0.0                 !
 ! R2    R(1,6)                  1.3919         -DE/DX =    0.0                 !
 ! R3    R(1,7)                  1.0838         -DE/DX =    0.0                 !
 ! R4    R(2,3)                  1.3919         -DE/DX =    0.0                 !
 ! R5    R(2,8)                  1.0838         -DE/DX =    0.0                 !
 ! R6    R(3,4)                  1.3919         -DE/DX =    0.0                 !
 ! R7    R(3,9)                  1.0838         -DE/DX =    0.0                 !
 ! R8    R(4,5)                  1.3919         -DE/DX =    0.0                 !
 ! R9    R(4,10)                 1.0838         -DE/DX =    0.0                 !
 ! R10   R(5,6)                  1.3919         -DE/DX =    0.0                 !
 ! R11   R(5,11)                 1.0838         -DE/DX =    0.0                 !
 ! R12   R(6,12)                 1.0838         -DE/DX =    0.0                 !
 ! A1    A(2,1,6)              119.9999         -DE/DX =    0.0                 !
 ! A2    A(2,1,7)              119.9988         -DE/DX =    0.0                 !
 ! A3    A(6,1,7)              120.0013         -DE/DX =    0.0                 !
 ! A4    A(1,2,3)              120.0002         -DE/DX =    0.0                 !
 ! A5    A(1,2,8)              119.9988         -DE/DX =    0.0                 !
 ! A6    A(3,2,8)              120.001          -DE/DX =    0.0                 !
 ! A7    A(2,3,4)              119.9999         -DE/DX =    0.0                 !
 ! A8    A(2,3,9)              120.0013         -DE/DX =    0.0                 !
 ! A9    A(4,3,9)              119.9988         -DE/DX =    0.0                 !
 ! A10   A(3,4,5)              119.9999         -DE/DX =    0.0                 !
 ! A11   A(3,4,10)             119.9989         -DE/DX =    0.0                 !
 ! A12   A(5,4,10)             120.0012         -DE/DX =    0.0                 !
 ! A13   A(4,5,6)              120.0002         -DE/DX =    0.0                 !
 ! A14   A(4,5,11)             120.0012         -DE/DX =    0.0                 !
 ! A15   A(6,5,11)             119.9986         -DE/DX =    0.0                 !
 ! A16   A(1,6,5)              119.9999         -DE/DX =    0.0                 !
 ! A17   A(1,6,12)             120.0011         -DE/DX =    0.0                 !
 ! A18   A(5,6,12)             119.999          -DE/DX =    0.0                 !
 ! D1    D(6,1,2,3)              0.0            -DE/DX =    0.0                 !
 ! D2    D(6,1,2,8)           -180.0            -DE/DX =    0.0                 !
 ! D3    D(7,1,2,3)            180.0            -DE/DX =    0.0                 !
 ! D4    D(7,1,2,8)              0.0            -DE/DX =    0.0                 !
 ! D5    D(2,1,6,5)              0.0            -DE/DX =    0.0                 !
 ! D6    D(2,1,6,12)          -180.0            -DE/DX =    0.0                 !
 ! D7    D(7,1,6,5)            180.0            -DE/DX =    0.0                 !
 ! D8    D(7,1,6,12)             0.0            -DE/DX =    0.0                 !
 ! D9    D(1,2,3,4)              0.0            -DE/DX =    0.0                 !
 ! D10   D(1,2,3,9)            180.0            -DE/DX =    0.0                 !
 ! D11   D(8,2,3,4)           -180.0            -DE/DX =    0.0                 !
 ! D12   D(8,2,3,9)              0.0            -DE/DX =    0.0                 !
 ! D13   D(2,3,4,5)              0.0            -DE/DX =    0.0                 !
 ! D14   D(2,3,4,10)           180.0            -DE/DX =    0.0                 !
 ! D15   D(9,3,4,5)           -180.0            -DE/DX =    0.0                 !
 ! D16   D(9,3,4,10)             0.0            -DE/DX =    0.0                 !
 ! D17   D(3,4,5,6)              0.0            -DE/DX =    0.0                 !
 ! D18   D(3,4,5,11)          -180.0            -DE/DX =    0.0                 !
 ! D19   D(10,4,5,6)           180.0            -DE/DX =    0.0                 !
 ! D20   D(10,4,5,11)            0.0            -DE/DX =    0.0                 !
 ! D21   D(4,5,6,1)              0.0            -DE/DX =    0.0                 !
 ! D22   D(4,5,6,12)           180.0            -DE/DX =    0.0                 !
 ! D23   D(11,5,6,1)           180.0            -DE/DX =    0.0                 !
 ! D24   D(11,5,6,12)            0.0            -DE/DX =    0.0                 !
 --------------------------------------------------------------------------------
 GradGradGradGradGradGradGradGradGradGradGradGradGradGradGradGradGradGrad

                          Input orientation:                          
 ---------------------------------------------------------------------
 Center     Atomic      Atomic             Coordinates (Angstroms)
 Number     Number       Type             X           Y           Z
 ---------------------------------------------------------------------
      1          6           0        0.061002   -1.390531    0.000000
      2          6           0        1.234742   -0.642419    0.000002
      3          6           0        1.173734    0.748094    0.000003
      4          6           0       -0.061020    1.390529    0.000001
      5          6           0       -1.234734    0.642434   -0.000001
      6          6           0       -1.173724   -0.748110   -0.000001
      7          1           0        0.108531   -2.473243    0.000000
      8          1           0        2.196143   -1.142654    0.000003
      9          1           0        2.087627    1.330611    0.000004
     10          1           0       -0.108504    2.473243    0.000001
     11          1           0       -2.196155    1.142629   -0.000002
     12          1           0       -2.087641   -1.330589   -0.000001
 ---------------------------------------------------------------------
                    Distance matrix (angstroms):
                    1          2          3          4          5
     1  C    0.000000
     2  C    1.391882   0.000000
     3  C    2.410786   1.391851   0.000000
     4  C    2.783736   2.410784   1.391884   0.000000
     5  C    2.410784   2.783731   2.410784   1.391851   0.000000
     6  C    1.391853   2.410784   2.783736   2.410786   1.391882
     7  H    1.083754   2.149480   3.392885   3.867491   3.392905
     8  H    2.149481   1.083755   2.149476   3.392905   3.867487
     9  H    3.392908   2.149480   1.083755   2.149482   3.392885
    10  H    3.867491   3.392884   2.149482   1.083754   2.149477
    11  H    3.392884   3.867487   3.392906   2.149478   1.083755
    12  H    2.149479   3.392905   3.867492   3.392887   2.149482
                    6          7          8          9         10
     6  C    0.000000
     7  H    2.149480   0.000000
     8  H    3.392885   2.475598   0.000000
     9  H    3.867492   4.287904   2.475645   0.000000
    10  H    3.392906   4.951245   4.287903   2.475601   0.000000
    11  H    2.149479   4.287903   4.951242   4.287904   2.475645
    12  H    1.083755   2.475648   4.287904   4.951247   4.287904
                   11         12
    11  H    0.000000
    12  H    2.475598   0.000000
 Stoichiometry    C6H6
 Framework group  C1[X(C6H6)]
 Deg. of freedom    30
 Full point group                 C1      NOp   1
 Largest Abelian subgroup         C1      NOp   1
 Largest concise Abelian subgroup C1      NOp   1
                         Standard orientation:                         
 ---------------------------------------------------------------------
 Center     Atomic      Atomic             Coordinates (Angstroms)
 Number     Number       Type             X           Y           Z
 ---------------------------------------------------------------------
      1          6           0        1.125526    0.818833    0.000000
      2          6           0       -0.146384    1.384147    0.000001
      3          6           0       -1.271893    0.565319    0.000002
      4          6           0       -1.125516   -0.818847    0.000000
      5          6           0        0.146366   -1.384148   -0.000002
      6          6           0        1.271900   -0.565302   -0.000001
      7          1           0        2.001880    1.456428   -0.000001
      8          1           0       -0.260336    2.461895    0.000002
      9          1           0       -2.262244    1.005467    0.000003
     10          1           0       -2.001896   -1.456406    0.000001
     11          1           0        0.260363   -2.461892   -0.000003
     12          1           0        2.262233   -1.005492   -0.000002
 ---------------------------------------------------------------------
 Rotational constants (GHZ):           5.7252135           5.7252032           2.8626042

 **********************************************************************

            Population analysis using the SCF Density.

 **********************************************************************

 Orbital symmetries:
       Occupied  (A) (A) (A) (A) (A) (A) (A) (A) (A) (A) (A) (A)
                 (A) (A) (A) (A) (A) (A) (A) (A) (A)
       Virtual   (A) (A) (A) (A) (A) (A) (A) (A) (A) (A) (A) (A)
                 (A) (A) (A) (A) (A) (A) (A) (A) (A) (A) (A) (A)
                 (A) (A) (A) (A) (A) (A) (A) (A) (A) (A) (A) (A)
                 (A) (A) (A) (A) (A) (A) (A) (A) (A) (A) (A) (A)
                 (A) (A) (A) (A) (A) (A) (A) (A) (A) (A) (A) (A)
                 (A) (A) (A) (A) (A) (A) (A) (A) (A) (A) (A) (A)
                 (A) (A) (A) (A) (A) (A) (A) (A) (A) (A) (A) (A)
                 (A) (A) (A) (A) (A) (A) (A) (A) (A) (A) (A) (A)
                 (A) (A) (A) (A) (A) (A) (A) (A) (A) (A) (A) (A)
                 (A) (A) (A) (A) (A) (A) (A) (A) (A) (A) (A) (A)
                 (A) (A) (A) (A) (A) (A) (A) (A) (A) (A) (A) (A)
                 (A) (A) (A) (A) (A) (A) (A) (A) (A) (A) (A) (A)
                 (A) (A) (A) (A) (A) (A) (A) (A) (A) (A) (A) (A)
                 (A) (A) (A) (A) (A) (A) (A) (A) (A) (A) (A) (A)
                 (A) (A) (A) (A) (A) (A) (A) (A) (A)
 The electronic state is 1-A.
 Alpha  occ. eigenvalues --  -10.17685 -10.17662 -10.17662 -10.17601 -10.17601
 Alpha  occ. eigenvalues --  -10.17574  -0.86036  -0.75154  -0.75154  -0.60814
 Alpha  occ. eigenvalues --   -0.60814  -0.52989  -0.46566  -0.45380  -0.42760
 Alpha  occ. eigenvalues --   -0.42760  -0.37333  -0.35057  -0.35057  -0.25979
 Alpha  occ. eigenvalues --   -0.25978
 Alpha virt. eigenvalues --   -0.01692  -0.01692   0.00458   0.02338   0.02338
 Alpha virt. eigenvalues --    0.04533   0.04533   0.06219   0.07212   0.07794
 Alpha virt. eigenvalues --    0.08918   0.08918   0.09840   0.12517   0.13972
 Alpha virt. eigenvalues --    0.13973   0.14163   0.14163   0.14558   0.14559
 Alpha virt. eigenvalues --    0.16973   0.19546   0.19546   0.20055   0.20624
 Alpha virt. eigenvalues --    0.20624   0.20714   0.20714   0.22490   0.23295
 Alpha virt. eigenvalues --    0.23295   0.26535   0.27888   0.32018   0.32018
 Alpha virt. eigenvalues --    0.32289   0.32289   0.39775   0.44686   0.45457
 Alpha virt. eigenvalues --    0.49183   0.51287   0.51288   0.52319   0.52319
 Alpha virt. eigenvalues --    0.53042   0.53522   0.53522   0.53712   0.54599
 Alpha virt. eigenvalues --    0.60790   0.60791   0.64137   0.64137   0.64425
 Alpha virt. eigenvalues --    0.64923   0.64923   0.66046   0.66673   0.71130
 Alpha virt. eigenvalues --    0.76535   0.76535   0.77384   0.77384   0.80301
 Alpha virt. eigenvalues --    0.81494   0.81495   0.81816   0.81816   0.83319
 Alpha virt. eigenvalues --    0.84122   0.84122   0.85372   1.00070   1.00070
 Alpha virt. eigenvalues --    1.10107   1.12355   1.12355   1.18490   1.21574
 Alpha virt. eigenvalues --    1.22928   1.22928   1.28513   1.30753   1.30753
 Alpha virt. eigenvalues --    1.32880   1.32880   1.34118   1.34119   1.47167
 Alpha virt. eigenvalues --    1.50344   1.50345   1.52938   1.52938   1.56064
 Alpha virt. eigenvalues --    1.56641   1.56641   1.58941   1.62052   1.77962
 Alpha virt. eigenvalues --    1.77962   1.88340   1.92909   1.99287   1.99288
 Alpha virt. eigenvalues --    2.15506   2.21703   2.32105   2.32105   2.33687
 Alpha virt. eigenvalues --    2.33687   2.56636   2.62596   2.65858   2.65859
 Alpha virt. eigenvalues --    2.67543   2.74069   2.74069   2.75342   2.75342
 Alpha virt. eigenvalues --    2.78153   2.83866   2.83866   2.84208   2.84208
 Alpha virt. eigenvalues --    2.99103   2.99310   2.99310   3.04747   3.09685
 Alpha virt. eigenvalues --    3.11105   3.11611   3.14823   3.22844   3.22844
 Alpha virt. eigenvalues --    3.27347   3.29443   3.29443   3.29850   3.29850
 Alpha virt. eigenvalues --    3.37039   3.37039   3.40428   3.43366   3.43367
 Alpha virt. eigenvalues --    3.55813   3.55813   3.57082   3.57083   3.60158
 Alpha virt. eigenvalues --    3.60158   3.65203   3.72852   3.72853   3.74587
 Alpha virt. eigenvalues --    3.78059   3.78059   3.82975   3.87567   3.87911
 Alpha virt. eigenvalues --    3.93067   3.93438   3.93438   4.00030   4.00030
 Alpha virt. eigenvalues --    4.52739   4.52739   4.63200   4.82993   4.82993
 Alpha virt. eigenvalues --    5.29048  23.60932  23.98937  23.98937  24.06163
 Alpha virt. eigenvalues --   24.06163  24.12428
          Condensed to atoms (all electrons):
               1          2          3          4          5          6
     1  C    4.976964   0.390602   0.100606  -0.211175   0.100612   0.390657
     2  C    0.390602   4.976973   0.390654   0.100612  -0.211175   0.100610
     3  C    0.100606   0.390654   4.976953   0.390617   0.100610  -0.211164
     4  C   -0.211175   0.100612   0.390617   4.976963   0.390643   0.100606
     5  C    0.100612  -0.211175   0.100610   0.390643   4.976973   0.390614
     6  C    0.390657   0.100610  -0.211164   0.100606   0.390614   4.976953
     7  H    0.435423  -0.073137   0.026995  -0.008439   0.026993  -0.073125
     8  H   -0.073132   0.435422  -0.073130   0.026996  -0.008440   0.026993
     9  H    0.026994  -0.073128   0.435422  -0.073135   0.026996  -0.008441
    10  H   -0.008439   0.026992  -0.073131   0.435423  -0.073131   0.026995
    11  H    0.026995  -0.008440   0.026993  -0.073125   0.435422  -0.073136
    12  H   -0.073128   0.026997  -0.008441   0.026993  -0.073134   0.435422
               7          8          9         10         11         12
     1  C    0.435423  -0.073132   0.026994  -0.008439   0.026995  -0.073128
     2  C   -0.073137   0.435422  -0.073128   0.026992  -0.008440   0.026997
     3  C    0.026995  -0.073130   0.435422  -0.073131   0.026993  -0.008441
     4  C   -0.008439   0.026996  -0.073135   0.435423  -0.073125   0.026993
     5  C    0.026993  -0.008440   0.026996  -0.073131   0.435422  -0.073134
     6  C   -0.073125   0.026993  -0.008441   0.026995  -0.073136   0.435422
     7  H    0.594885  -0.005932  -0.000410   0.000109  -0.000410  -0.005932
     8  H   -0.005932   0.594885  -0.005933  -0.000410   0.000109  -0.000410
     9  H   -0.000410  -0.005933   0.594884  -0.005932  -0.000410   0.000109
    10  H    0.000109  -0.000410  -0.005932   0.594885  -0.005933  -0.000410
    11  H   -0.000410   0.000109  -0.000410  -0.005933   0.594885  -0.005932
    12  H   -0.005932  -0.000410   0.000109  -0.000410  -0.005932   0.594884
 Mulliken charges:
               1
     1  C   -0.082979
     2  C   -0.082983
     3  C   -0.082985
     4  C   -0.082979
     5  C   -0.082983
     6  C   -0.082985
     7  H    0.082981
     8  H    0.082983
     9  H    0.082983
    10  H    0.082981
    11  H    0.082983
    12  H    0.082983
 Sum of Mulliken charges =   0.00000
 Mulliken charges with hydrogens summed into heavy atoms:
               1
     1  C    0.000002
     2  C    0.000000
     3  C   -0.000002
     4  C    0.000002
     5  C    0.000000
     6  C   -0.000002
 Electronic spatial extent (au):  <R**2>=            458.0527
 Charge=              0.0000 electrons
 Dipole moment (field-independent basis, Debye):
    X=              0.0000    Y=              0.0000    Z=              0.0000  Tot=              0.0000
 Quadrupole moment (field-independent basis, Debye-Ang):
   XX=            -32.1557   YY=            -32.1557   ZZ=            -40.1726
   XY=              0.0000   XZ=              0.0000   YZ=              0.0000
 Traceless Quadrupole moment (field-independent basis, Debye-Ang):
   XX=              2.6723   YY=              2.6723   ZZ=             -5.3446
   XY=              0.0000   XZ=              0.0000   YZ=              0.0000
 Octapole moment (field-independent basis, Debye-Ang**2):
  XXX=             -0.0005  YYY=              0.0002  ZZZ=              0.0000  XYY=              0.0005
  XXY=             -0.0002  XXZ=              0.0000  XZZ=              0.0000  YZZ=              0.0000
  YYZ=              0.0000  XYZ=              0.0000
 Hexadecapole moment (field-independent basis, Debye-Ang**3):
 XXXX=           -276.2573 YYYY=           -276.2574 ZZZZ=            -50.0222 XXXY=              0.0001
 XXXZ=              0.0001 YYYX=              0.0001 YYYZ=             -0.0001 ZZZX=              0.0001
 ZZZY=             -0.0001 XXYY=            -92.0857 XXZZ=            -64.8622 YYZZ=            -64.8622
 XXYZ=              0.0000 YYXZ=              0.0000 ZZXY=              0.0000
 N-N= 2.038674795023D+02 E-N=-9.463044931807D+02  KE= 2.312841841932D+02
 1\1\GINC-HRG02\FOpt\RB3LYP\6-311+G(2d,p)\C6H6\HASHMI\01-Jul-2023\0\\# 
 opt freq B3LYP/6-311+G(2d,p) scf=xqc out=wfn\\Title Card Required\\0,1
 \C,0.0610022878,-1.3905310875,0.0000004606\C,1.2347419895,-0.642419481
 5,0.0000019259\C,1.1737342249,0.7480940707,0.0000026809\C,-0.061019967
 3,1.3905294613,0.0000010367\C,-1.23473361,0.6424344677,-0.0000008486\C
 ,-1.1737244602,-0.7481099601,-0.000000693\H,0.1085314676,-2.473242798,
 0.0000000584\H,2.1961425369,-1.1426542682,0.0000027634\H,2.0876266752,
 1.3306113624,0.0000038567\H,-0.1085041608,2.4732431294,0.0000013697\H,
 -2.1961548669,1.1426294161,-0.0000021647\H,-2.0876411169,-1.3305893124
 ,-0.000001446\\Version=EM64L-G16RevB.01\State=1-A\HF=-232.317425\RMSD=
 1.887e-09\RMSF=6.493e-06\Dipole=0.0000001,0.0000003,0.\Quadrupole=1.98
 67788,1.9868265,-3.9736054,0.0000099,0.0000066,0.0000014\PG=C01 [X(C6H
 6)]\\@

 Writing a WFN file to "benzene.wfn"


 BULLDOZER: SOMEONE WHO SLEEPS THROUGH SPEECHES.
 Job cpu time:       0 days  0 hours 10 minutes 48.0 seconds.
 Elapsed time:       0 days  0 hours  2 minutes 44.9 seconds.
 File lengths (MBytes):  RWF=     21 Int=      0 D2E=      0 Chk=      5 Scr=      1
 Normal termination of Gaussian 16 at Sat Jul  1 10:01:02 2023.
 Link1:  Proceeding to internal job step number  2.
 ----------------------------------------------------------------------
 #N Geom=AllCheck Guess=TCheck SCRF=Check GenChk RB3LYP/6-311+G(2d,p) F
 req
 ----------------------------------------------------------------------
 1/10=4,29=7,30=1,38=1,40=1/1,3;
 2/12=2,40=1/2;
 3/5=4,6=6,7=112,11=2,14=-4,25=1,30=1,70=2,71=2,74=-5,116=1,140=1/1,2,3;
 4/5=101/1;
 5/5=2,8=3,13=1,38=6,98=1/2,8;
 8/6=4,10=90,11=11/1;
 11/6=1,8=1,9=11,15=111,16=1/1,2,10;
 10/6=1/2;
 6/7=2,8=2,9=2,10=2,28=1/1;
 7/8=1,10=1,25=1/1,2,3,16;
 1/10=4,30=1/3;
 99//99;
 Structure from the checkpoint file:  "benzene.chk"
 -------------------
 Title Card Required
 -------------------
 Charge =  0 Multiplicity = 1
 Redundant internal coordinates found in file.  (old form).
 C,0,0.0610022878,-1.3905310875,0.0000004606
 C,0,1.2347419895,-0.6424194815,0.0000019259
 C,0,1.1737342249,0.7480940707,0.0000026809
 C,0,-0.0610199673,1.3905294613,0.0000010367
 C,0,-1.23473361,0.6424344677,-0.0000008486
 C,0,-1.1737244602,-0.7481099601,-0.000000693
 H,0,0.1085314676,-2.473242798,0.0000000584
 H,0,2.1961425369,-1.1426542682,0.0000027634
 H,0,2.0876266752,1.3306113624,0.0000038567
 H,0,-0.1085041608,2.4732431294,0.0000013697
 H,0,-2.1961548669,1.1426294161,-0.0000021647
 H,0,-2.0876411169,-1.3305893124,-0.000001446
 Recover connectivity data from disk.

 GradGradGradGradGradGradGradGradGradGradGradGradGradGradGradGradGradGrad
 Berny optimization.
 Initialization pass.
                           ----------------------------
                           !    Initial Parameters    !
                           ! (Angstroms and Degrees)  !
 --------------------------                            --------------------------
 ! Name  Definition              Value          Derivative Info.                !
 --------------------------------------------------------------------------------
 ! R1    R(1,2)                  1.3919         calculate D2E/DX2 analytically  !
 ! R2    R(1,6)                  1.3919         calculate D2E/DX2 analytically  !
 ! R3    R(1,7)                  1.0838         calculate D2E/DX2 analytically  !
 ! R4    R(2,3)                  1.3919         calculate D2E/DX2 analytically  !
 ! R5    R(2,8)                  1.0838         calculate D2E/DX2 analytically  !
 ! R6    R(3,4)                  1.3919         calculate D2E/DX2 analytically  !
 ! R7    R(3,9)                  1.0838         calculate D2E/DX2 analytically  !
 ! R8    R(4,5)                  1.3919         calculate D2E/DX2 analytically  !
 ! R9    R(4,10)                 1.0838         calculate D2E/DX2 analytically  !
 ! R10   R(5,6)                  1.3919         calculate D2E/DX2 analytically  !
 ! R11   R(5,11)                 1.0838         calculate D2E/DX2 analytically  !
[...]
   A17        2.09442   0.00000   0.00000  -0.00002  -0.00002   2.09439
   A18        2.09438   0.00000   0.00000   0.00002   0.00002   2.09439
    D1        0.00000   0.00000   0.00000   0.00000   0.00000   0.00000
    D2       -3.14159   0.00000   0.00000   0.00000   0.00000   3.14159
    D3       -3.14159   0.00000   0.00000   0.00000   0.00000   3.14159
    D4        0.00000   0.00000   0.00000   0.00000   0.00000   0.00000
    D5        0.00000   0.00000   0.00000   0.00000   0.00000   0.00000
    D6       -3.14159   0.00000   0.00000   0.00000   0.00000   3.14159
    D7       -3.14159   0.00000   0.00000   0.00000   0.00000  -3.14159
    D8        0.00000   0.00000   0.00000   0.00000   0.00000   0.00000
    D9        0.00000   0.00000   0.00000   0.00000   0.00000   0.00000
   D10        3.14159   0.00000   0.00000   0.00000   0.00000  -3.14159
   D11        3.14159   0.00000   0.00000   0.00000   0.00000   3.14159
   D12        0.00000   0.00000   0.00000   0.00000   0.00000   0.00000
   D13        0.00000   0.00000   0.00000   0.00000   0.00000   0.00000
   D14       -3.14159   0.00000   0.00000   0.00000   0.00000   3.14159
   D15        3.14159   0.00000   0.00000   0.00000   0.00000  -3.14159
   D16        0.00000   0.00000   0.00000   0.00000   0.00000   0.00000
   D17        0.00000   0.00000   0.00000   0.00000   0.00000   0.00000
   D18       -3.14159   0.00000   0.00000   0.00000   0.00000  -3.14159
   D19       -3.14159   0.00000   0.00000   0.00000   0.00000   3.14159
   D20        0.00000   0.00000   0.00000   0.00000   0.00000   0.00000
   D21        0.00000   0.00000   0.00000   0.00000   0.00000   0.00000
   D22        3.14159   0.00000   0.00000   0.00000   0.00000   3.14159
   D23        3.14159   0.00000   0.00000   0.00000   0.00000   3.14159
   D24        0.00000   0.00000   0.00000   0.00000   0.00000   0.00000
         Item               Value     Threshold  Converged?
 Maximum Force            0.000015     0.000450     YES
 RMS     Force            0.000003     0.000300     YES
 Maximum Displacement     0.000027     0.001800     YES
 RMS     Displacement     0.000011     0.001200     YES
 Predicted change in Energy=-1.056199D-09
 Optimization completed.
    -- Stationary point found.
                           ----------------------------
                           !   Optimized Parameters   !
                           ! (Angstroms and Degrees)  !
 --------------------------                            --------------------------
 ! Name  Definition              Value          Derivative Info.                !
 --------------------------------------------------------------------------------
 ! R1    R(1,2)                  1.3919         -DE/DX =    0.0                 !
 ! R2    R(1,6)                  1.3919         -DE/DX =    0.0                 !
 ! R3    R(1,7)                  1.0838         -DE/DX =    0.0                 !
 ! R4    R(2,3)                  1.3919         -DE/DX =    0.0                 !
 ! R5    R(2,8)                  1.0838         -DE/DX =    0.0                 !
 ! R6    R(3,4)                  1.3919         -DE/DX =    0.0                 !
 ! R7    R(3,9)                  1.0838         -DE/DX =    0.0                 !
 ! R8    R(4,5)                  1.3919         -DE/DX =    0.0                 !
 ! R9    R(4,10)                 1.0838         -DE/DX =    0.0                 !
 ! R10   R(5,6)                  1.3919         -DE/DX =    0.0                 !
 ! R11   R(5,11)                 1.0838         -DE/DX =    0.0                 !
 ! R12   R(6,12)                 1.0838         -DE/DX =    0.0                 !
 ! A1    A(2,1,6)              119.9999         -DE/DX =    0.0                 !
 ! A2    A(2,1,7)              119.9988         -DE/DX =    0.0                 !
 ! A3    A(6,1,7)              120.0013         -DE/DX =    0.0                 !
 ! A4    A(1,2,3)              120.0002         -DE/DX =    0.0                 !
 ! A5    A(1,2,8)              119.9988         -DE/DX =    0.0                 !
 ! A6    A(3,2,8)              120.001          -DE/DX =    0.0                 !
 ! A7    A(2,3,4)              119.9999         -DE/DX =    0.0                 !
 ! A8    A(2,3,9)              120.0013         -DE/DX =    0.0                 !
 ! A9    A(4,3,9)              119.9988         -DE/DX =    0.0                 !
 ! A10   A(3,4,5)              119.9999         -DE/DX =    0.0                 !
 ! A11   A(3,4,10)             119.9989         -DE/DX =    0.0                 !
 ! A12   A(5,4,10)             120.0012         -DE/DX =    0.0                 !
 ! A13   A(4,5,6)              120.0002         -DE/DX =    0.0                 !
 ! A14   A(4,5,11)             120.0012         -DE/DX =    0.0                 !
 ! A15   A(6,5,11)             119.9986         -DE/DX =    0.0                 !
 ! A16   A(1,6,5)              119.9999         -DE/DX =    0.0                 !
 ! A17   A(1,6,12)             120.0011         -DE/DX =    0.0                 !
 ! A18   A(5,6,12)             119.999          -DE/DX =    0.0                 !
 ! D1    D(6,1,2,3)              0.0            -DE/DX =    0.0                 !
 ! D2    D(6,1,2,8)            180.0            -DE/DX =    0.0                 !
 ! D3    D(7,1,2,3)            180.0            -DE/DX =    0.0                 !
 ! D4    D(7,1,2,8)              0.0            -DE/DX =    0.0                 !
 ! D5    D(2,1,6,5)              0.0            -DE/DX =    0.0                 !
 ! D6    D(2,1,6,12)           180.0            -DE/DX =    0.0                 !
 ! D7    D(7,1,6,5)           -180.0            -DE/DX =    0.0                 !
 ! D8    D(7,1,6,12)             0.0            -DE/DX =    0.0                 !
 ! D9    D(1,2,3,4)              0.0            -DE/DX =    0.0                 !
 ! D10   D(1,2,3,9)           -180.0            -DE/DX =    0.0                 !
 ! D11   D(8,2,3,4)            180.0            -DE/DX =    0.0                 !
 ! D12   D(8,2,3,9)              0.0            -DE/DX =    0.0                 !
 ! D13   D(2,3,4,5)              0.0            -DE/DX =    0.0                 !
 ! D14   D(2,3,4,10)           180.0            -DE/DX =    0.0                 !
 ! D15   D(9,3,4,5)           -180.0            -DE/DX =    0.0                 !
 ! D16   D(9,3,4,10)             0.0            -DE/DX =    0.0                 !
 ! D17   D(3,4,5,6)              0.0            -DE/DX =    0.0                 !
 ! D18   D(3,4,5,11)          -180.0            -DE/DX =    0.0                 !
 ! D19   D(10,4,5,6)           180.0            -DE/DX =    0.0                 !
 ! D20   D(10,4,5,11)            0.0            -DE/DX =    0.0                 !
 ! D21   D(4,5,6,1)              0.0            -DE/DX =    0.0                 !
 ! D22   D(4,5,6,12)           180.0            -DE/DX =    0.0                 !
 ! D23   D(11,5,6,1)           180.0            -DE/DX =    0.0                 !
 ! D24   D(11,5,6,12)            0.0            -DE/DX =    0.0                 !
 --------------------------------------------------------------------------------
 GradGradGradGradGradGradGradGradGradGradGradGradGradGradGradGradGradGrad


 ----------------------------------------------------------------------

 Electric dipole moment (input orientation):
 (Debye = 10**-18 statcoulomb cm , SI units = C m)
                  (au)            (Debye)         (10**-30 SI)
   Tot        0.000000D+00      0.000000D+00      0.000000D+00
   x          0.000000D+00      0.000000D+00      0.000000D+00
   y          0.000000D+00      0.000000D+00      0.000000D+00
   z          0.000000D+00      0.000000D+00      0.000000D+00

 Dipole polarizability, Alpha (input orientation).
 (esu units = cm**3 , SI units = C**2 m**2 J**-1)
 Alpha(0;0):
               (au)            (10**-24 esu)      (10**-40 SI)
   iso        0.672843D+02      0.997050D+01      0.110937D+02
   aniso      0.364511D+02      0.540150D+01      0.600997D+01
   xx         0.794349D+02      0.117710D+02      0.130970D+02
   yx         0.159099D-03      0.235760D-04      0.262319D-04
   yy         0.794344D+02      0.117710D+02      0.130970D+02
   zx         0.459813D-04      0.681373D-05      0.758129D-05
   zy         0.000000D+00      0.000000D+00      0.000000D+00
   zz         0.429835D+02      0.636950D+01      0.708703D+01

 ----------------------------------------------------------------------

 Dipole orientation:
     6          0.99509496         -0.24454247          2.42243714
     6          2.45332190         -0.88895647          0.33039108
     6          1.45822997         -0.64441092         -2.09201154
     6         -0.99512214          0.24455625         -2.42242284
     6         -2.45331699          0.88895520         -0.33042319
     6         -1.45820231          0.64440581          2.09203311
     1          1.76995802         -0.43497220          4.30860360
     1          4.36355840         -1.58112566          0.58769692
     1          2.59361224         -1.14615809         -3.72095742
     1         -1.76991218          0.43495721         -4.30862217
     1         -4.36356240          1.58113098         -0.58764491
     1         -2.59364870          1.14617490          3.72092760

 Electric dipole moment (dipole orientation):
 (Debye = 10**-18 statcoulomb cm , SI units = C m)
                  (au)            (Debye)         (10**-30 SI)
   Tot        0.000000D+00      0.000000D+00      0.000000D+00
   x          0.000000D+00      0.000000D+00      0.000000D+00
   y          0.000000D+00      0.000000D+00      0.000000D+00
   z          0.000000D+00      0.000000D+00      0.000000D+00

 Dipole polarizability, Alpha (dipole orientation).
 (esu units = cm**3 , SI units = C**2 m**2 J**-1)
 Alpha(0;0):
               (au)            (10**-24 esu)      (10**-40 SI)
   iso        0.672843D+02      0.997050D+01      0.110937D+02
   aniso      0.364511D+02      0.540150D+01      0.600997D+01
   xx         0.750725D+02      0.111246D+02      0.123778D+02
   yx        -0.118161D+02     -0.175097D+01     -0.194822D+01
   yy         0.474281D+02      0.702811D+01      0.781983D+01
   zx         0.598831D+00      0.887375D-01      0.987338D-01
   zy         0.162288D+01      0.240487D+00      0.267577D+00
   zz         0.793523D+02      0.117588D+02      0.130834D+02

 ----------------------------------------------------------------------
 1\1\GINC-HRG02\Freq\RB3LYP\6-311+G(2d,p)\C6H6\HASHMI\01-Jul-2023\0\\#N
  Geom=AllCheck Guess=TCheck SCRF=Check GenChk RB3LYP/6-311+G(2d,p) Fre
 q\\Title Card Required\\0,1\C,0.0610022878,-1.3905310875,0.0000004606\
 C,1.2347419895,-0.6424194815,0.0000019259\C,1.1737342249,0.7480940707,
 0.0000026809\C,-0.0610199673,1.3905294613,0.0000010367\C,-1.23473361,0
 .6424344677,-0.0000008486\C,-1.1737244602,-0.7481099601,-0.000000693\H
 ,0.1085314676,-2.473242798,0.0000000584\H,2.1961425369,-1.1426542682,0
 .0000027634\H,2.0876266752,1.3306113624,0.0000038567\H,-0.1085041608,2
 .4732431294,0.0000013697\H,-2.1961548669,1.1426294161,-0.0000021647\H,
 -2.0876411169,-1.3305893124,-0.000001446\\Version=EM64L-G16RevB.01\Sta
 te=1-A\HF=-232.317425\RMSD=1.225e-09\RMSF=6.498e-06\ZeroPoint=0.100068
 4\Thermal=0.104472\Dipole=-0.0000002,-0.0000006,0.\DipoleDeriv=-0.0530
 316,-0.0065043,0.0000002,-0.0064713,0.0948659,0.0000001,0.0000001,0.00
 00002,-0.1358281,0.0633842,-0.0608571,0.0000001,-0.0608269,-0.0218294,
 0.,0.0000003,0.,-0.1358157,0.0521697,0.0673537,0.0000003,0.0673061,-0.
 0105143,0.0000001,0.,0.,-0.135815,-0.0530315,-0.006506,0.,-0.006475,0.
 094865,0.,0.0000002,0.0000002,-0.1358278,0.0633819,-0.06086,0.0000004,
 -0.0608269,-0.0218274,0.,0.0000003,0.,-0.1358157,0.0521677,0.067356,0.
 ,0.0673065,-0.0105115,0.,0.,0.,-0.1358153,0.0642199,0.0074931,0.,0.007
 475,-0.1059059,0.,0.,-0.0000001,0.1358349,-0.0698481,0.069923,-0.00000
 02,0.0699288,0.0281706,0.,-0.0000003,0.,0.1358211,-0.0568865,-0.077400
 9,-0.0000003,-0.0774085,0.0152057,-0.0000001,0.,0.,0.1358028,0.0642206
 ,0.0074815,0.,0.0074731,-0.1059063,0.,-0.0000002,-0.0000001,0.1358349,
 -0.0698536,0.0699239,-0.0000003,0.0699201,0.0281761,0.,-0.0000002,0.,0
 .1358211,-0.0568928,-0.0774029,-0.0000002,-0.0774009,0.0152117,0.,-0.0
 000002,0.,0.1358028\Polar=79.4348881,0.0001591,79.4343934,0.000046,0.0
 000097,42.983545\Quadrupole=1.9867778,1.9868276,-3.9736054,0.0000128,0
 .0000066,0.0000014\PG=C01 [X(C6H6)]\NImag=0\\0.65167467,-0.00371072,0.
 73536438,0.00000054,0.00000020,0.13322076,-0.26987217,-0.12072408,-0.0
 0000025,0.71760696,-0.05629586,-0.18739882,-0.00000009,-0.03446094,0.6
 6939864,-0.00000024,-0.00000017,-0.06216233,0.00000061,0.00000022,0.13
 322323,0.03876753,-0.02730947,0.00000002,-0.13135197,-0.02364549,-0.00
 000008,0.71120692,-0.07429775,-0.03242982,-0.00000011,0.04077432,-0.32
 596103,-0.00000012,0.03812866,0.67576025,0.00000002,-0.00000004,0.0068
 9624,-0.00000006,-0.00000019,-0.06215270,0.00000074,0.00000026,0.13320
 682,-0.06853101,-0.00298065,-0.00000007,0.02935154,0.07973050,0.000000
 05,-0.28467587,0.04773384,-0.00000030,0.65166817,-0.00298127,-0.000796
 19,0.,0.03274408,-0.02301209,0.00000003,0.11215872,-0.17257199,0.00000
 013,-0.00363674,0.73537094,-0.00000009,0.,-0.00623055,0.00000004,0.000
 00009,0.00689947,-0.00000030,0.00000006,-0.06215585,0.00000076,0.00000
 018,0.13322044,0.02935216,0.03274380,0.00000003,-0.01514679,-0.0278516
 1,-0.00000002,-0.05859951,0.01806235,-0.00000008,-0.26992172,-0.120756
 46,-0.00000034,0.71766782,0.07973024,-0.02301274,0.00000010,-0.0278510
 2,-0.05417477,-0.00000005,-0.02892883,0.06496304,-0.00000002,-0.056329
 66,-0.18741751,-0.00000014,-0.03441835,0.66933782,0.00000005,0.0000000
 3,0.00689958,-0.00000002,-0.00000004,-0.00622357,-0.00000009,0.0000000
 3,0.00688997,-0.00000032,-0.00000021,-0.06215681,0.00000082,-0.0000000
 2,0.13322318,-0.28473088,0.11218790,-0.00000019,-0.05859949,-0.0289295
 3,-0.00000008,-0.02030790,0.03083153,0.,0.03876810,-0.02730907,0.00000
 004,-0.13135423,-0.02364937,-0.00000010,0.71127421,0.04776437,-0.17258
 516,0.,0.01806166,0.06496299,0.00000004,0.03083092,-0.04900616,0.00000
 002,-0.07429736,-0.03243039,-0.00000009,0.04077183,-0.32589055,0.00000
 008,0.03809727,0.67569293,-0.00000021,0.00000010,-0.06215078,-0.000000
 07,-0.00000003,0.00689010,-0.00000001,0.00000003,-0.00621600,0.0000000
 1,-0.00000004,0.00689622,-0.00000007,0.00000001,-0.06215815,0.00000056
 ,0.00000002,0.13320709,-0.06085038,0.01196213,-0.00000002,0.00597699,-
 0.02793036,0.,-0.00426662,-0.00257380,-0.00000001,-0.00130526,-0.00008
 903,0.,-0.00475877,0.00211613,-0.00000001,0.00366365,0.02939454,0.0000
 0001,0.05932121,0.01196100,-0.33269589,-0.00000011,0.00307888,-0.01299
 335,0.,-0.00348389,0.00044669,0.,-0.00008935,0.00072468,0.,0.00302693,
 0.00093933,0.,-0.00161380,-0.01067860,0.,-0.01296364,0.35395720,0.,-0.
 00000011,-0.03606294,0.,-0.00000004,0.00292459,-0.00000002,0.,0.007296
 56,0.,0.,-0.00085561,-0.00000001,0.,0.00729786,-0.00000001,0.00000004,
 0.00292692,0.00000003,0.00000012,0.02509981,-0.01912502,0.01476944,-0.
 00000002,-0.27508184,0.11174280,-0.00000021,0.00251100,-0.00107710,0.,
 0.00189172,-0.00007057,0.,0.00029476,-0.00083453,0.,-0.00271185,-0.004
 20876,-0.00000001,0.00101035,-0.00027711,0.,0.29151421,-0.01623834,0.0
 1210664,-0.00000001,0.11174395,-0.11846750,0.00000008,0.02993096,-0.00
 952657,0.00000003,-0.00098158,-0.00571184,0.,-0.00083474,-0.00087477,0
 .,-0.00329879,-0.00110722,0.,0.00057295,0.00087227,0.,-0.12111004,0.12
 176823,-0.00000002,0.00000002,0.00292655,-0.00000022,0.00000008,-0.036
 06394,0.00000002,0.,0.00292521,0.,0.,0.00729748,0.,0.,-0.00085530,-0.0
 0000001,0.,0.00729688,0.,0.,-0.00389058,0.00000024,-0.00000009,0.02510
 190,0.00174133,0.00072612,0.,0.00493568,0.00234819,0.,-0.25437654,-0.1
 2369139,-0.00000028,-0.01901296,-0.01750534,-0.00000003,-0.00335511,0.
 00401049,-0.00000001,0.00014096,0.00092348,0.,0.00007363,0.00023320,0.
 ,0.00077868,-0.00043942,0.,0.26907363,0.00163587,-0.00556124,0.,-0.028
 65968,-0.01195343,-0.00000004,-0.12369335,-0.13916736,-0.00000017,0.01
 350315,0.01199593,0.00000002,0.00310055,-0.00046500,0.,0.00092451,-0.0
 0072069,0.,-0.00137460,-0.00072637,0.,0.00041084,0.00110466,0.,0.13406
 205,0.14420489,0.,0.,0.00729780,-0.00000002,0.,0.00292578,-0.00000026,
 -0.00000017,-0.03605943,-0.00000004,-0.00000002,0.00292449,-0.00000001
 ,0.00000001,0.00729681,0.,0.,-0.00085530,0.,0.,0.00019555,0.,0.,-0.003
 89233,0.00000032,0.00000019,0.02509829,-0.00130526,-0.00008914,0.,-0.0
 0475897,0.00211632,-0.00000002,0.00366343,0.02939463,0.00000001,-0.060
 84939,0.01195070,-0.00000004,0.00597723,-0.02793028,0.,-0.00426644,-0.
 00257362,-0.00000002,0.00013230,0.00000902,0.,-0.00003212,0.00143567,0
 .,0.00103502,-0.00055889,0.,0.05932023,-0.00008933,0.00072468,0.,0.003
 02712,0.00093902,0.,-0.00161408,-0.01067927,0.,0.01195049,-0.33269693,
 -0.00000009,0.00307857,-0.01299266,0.,-0.00348371,0.00044704,0.,0.0000
 0905,-0.00007294,0.,-0.00017224,-0.00062056,0.,0.00029097,0.00084759,0
 .,-0.01295291,0.35395819,0.,0.,-0.00085563,-0.00000001,0.,0.00729694,0
 .,0.00000004,0.00292666,-0.00000004,-0.00000010,-0.03606289,0.00000001
 ,-0.00000004,0.00292480,-0.00000002,0.,0.00729751,0.,0.,-0.00123702,0.
 ,0.,0.00019565,0.,0.,-0.00389009,0.00000005,0.00000010,0.02509981,0.00
 189156,-0.00007041,0.,0.00029473,-0.00083448,0.,-0.00271140,-0.0042087
 1,-0.00000002,-0.01912451,0.01476901,-0.00000003,-0.27509088,0.1117369
 7,-0.00000033,0.00251033,-0.00107715,0.,-0.00003212,-0.00017224,0.,-0.
 00002938,0.00008433,0.,-0.00102050,0.00074296,0.,0.00101035,-0.0002771
 3,0.,0.29152306,-0.00098142,-0.00571222,0.,-0.00083483,-0.00087473,0.,
 -0.00329874,-0.00110714,0.,-0.01623839,0.01210704,-0.00000002,0.111737
 19,-0.11845848,0.00000015,0.02993128,-0.00952681,0.00000004,0.00143567
 ,-0.00062055,0.,0.00008430,0.00008880,0.,-0.00086496,0.00036785,0.,0.0
 0057310,0.00087221,0.,-0.12110388,0.12175941,0.,0.,0.00729654,0.,0.,-0
 .00085530,-0.00000001,-0.00000001,0.00729783,-0.00000004,0.00000002,0.
 00292677,-0.00000032,0.00000016,-0.03606393,0.,0.,0.00292498,0.,0.,0.0
 0019565,0.,0.,-0.00123702,0.,0.,0.00019550,0.,0.,-0.00389128,0.0000003
 6,-0.00000016,0.02510190,-0.01901253,-0.01750491,-0.00000002,-0.003354
 65,0.00401047,0.,0.00014092,0.00092343,0.,0.00174121,0.00072599,0.,0.0
 0493504,0.00234822,0.,-0.25438646,-0.12368717,-0.00000019,0.00103503,0
 .00029100,0.,-0.00102051,-0.00086495,0.,-0.00001383,-0.00009340,0.,0.0
 0007362,0.00023319,0.,0.00077878,-0.00043932,0.,0.26908338,0.01350321,
 0.01199638,0.00000001,0.00310054,-0.00046493,0.,0.00092459,-0.00072065
 ,0.,0.00163574,-0.00556164,0.,-0.02866005,-0.01195370,-0.00000003,-0.1
 2368820,-0.13915739,-0.00000010,-0.00055904,0.00084753,0.,0.00074297,0
 .00036785,0.,-0.00009337,0.00007317,0.,-0.00137461,-0.00072637,0.,0.00
 041075,0.00110462,0.,0.13405747,0.14419513,-0.00000002,-0.00000002,0.0
 0292475,-0.00000001,0.,0.00729773,0.,0.,-0.00085529,0.,0.,0.00729686,0
 .,0.,0.00292557,-0.00000018,-0.00000010,-0.03605948,0.,0.,-0.00389078,
 0.,0.,0.00019550,0.,0.,-0.00123707,0.,0.,0.00019555,0.,0.,-0.00389163,
 0.00000021,0.00000011,0.02509829\\-0.00000945,-0.00000666,0.,0.0000121
 3,0.00000998,-0.00000003,0.00001660,-0.00001067,0.00000006,-0.00001776
 ,0.00000546,0.,0.00000045,0.00001422,-0.00000004,-0.00000195,-0.000012
 28,0.00000002,0.00000139,0.00000263,-0.00000001,-0.00000295,-0.0000002
 6,0.,-0.00000227,0.00000046,-0.00000002,0.00000195,-0.00000252,0.,0.00
 000143,-0.00000271,0.,0.00000044,0.00000234,0.00000002\\\@


 What some people mistake for the high cost
 of living is really the cost of living high.
                              -- Doug Larson
 Job cpu time:       0 days  0 hours 40 minutes 28.3 seconds.
 Elapsed time:       0 days  0 hours 10 minutes  9.0 seconds.
 File lengths (MBytes):  RWF=     45 Int=      0 D2E=      0 Chk=      5 Scr=      1
 Normal termination of Gaussian 16 at Sat Jul  1 10:11:13 2023.
