 Entering Gaussian System, Link 0=g16
 Initial command:
 /home/software/apps/gaussian/g16/l1.exe "/nfs/scratch/hashmimu/3105226/Gau-353713.inp" -scrdir="/nfs/scratch/hashmimu/3105226/"
 Entering Link 1 = /home/software/apps/gaussian/g16/l1.exe PID=    353715.
  
 Copyright (c) 1988-2019, Gaussian, Inc.  All Rights Reserved.
  
 This is part of the Gaussian(R) 16 program.  It is based on
 the Gaussian(R) 09 system (copyright 2009, Gaussian, Inc.),
 the Gaussian(R) 03 system (copyright 2003, Gaussian, Inc.),
 the Gaussian(R) 98 system (copyright 1998, Gaussian, Inc.),
 the Gaussian(R) 94 system (copyright 1995, Gaussian, Inc.),
 the Gaussian 92(TM) system (copyright 1992, Gaussian, Inc.),
 the Gaussian 90(TM) system (copyright 1990, Gaussian, Inc.),
 the Gaussian 88(TM) system (copyright 1988, Gaussian, Inc.),
 the Gaussian 86(TM) system (copyright 1986, Carnegie Mellon
 University), and the Gaussian 82(TM) system (copyright 1983,
 Carnegie Mellon University). Gaussian is a federally registered
 trademark of Gaussian, Inc.
  
 This software contains proprietary and confidential information,
 including trade secrets, belonging to Gaussian, Inc.
  
 This software is provided under written license and may be
 used, copied, transmitted, or stored only in accord with that
 written license.
  
 The following legend is applicable only to US Government
 contracts under FAR:
  
                    RESTRICTED RIGHTS LEGEND
  
 Use, reproduction and disclosure by the US Government is
 subject to restrictions as set forth in subparagraphs (a)
 and (c) of the Commercial Computer Software - Restricted
 Rights clause in FAR 52.227-19.
  
 Gaussian, Inc.
 340 Quinnipiac St., Bldg. 40, Wallingford CT 06492
  
  
 ---------------------------------------------------------------
 Warning -- This program may not be used in any manner that
 competes with the business of Gaussian, Inc. or will provide
 assistance to any competitor of Gaussian, Inc.  The licensee
 of this program is prohibited from giving any competitor of
 Gaussian, Inc. access to this program.  By using this program,
 the user acknowledges that Gaussian, Inc. is engaged in the
 business of creating and licensing software in the field of
 computational chemistry and represents and warrants to the
 licensee that it is not a competitor of Gaussian, Inc. and that
 it will not use this program in any manner prohibited above.
 ---------------------------------------------------------------
  

 Cite this work as:
 Gaussian 16, Revision C.01,
 M. J. Frisch, G. W. Trucks, H. B. Schlegel, G. E. Scuseria, 
 M. A. Robb, J. R. Cheeseman, G. Scalmani, V. Barone, 
 G. A. Petersson, H. Nakatsuji, X. Li, M. Caricato, A. V. Marenich, 
 J. Bloino, B. G. Janesko, R. Gomperts, B. Mennucci, H. P. Hratchian, 
 J. V. Ortiz, A. F. Izmaylov, J. L. Sonnenberg, D. Williams-Young, 
 F. Ding, F. Lipparini, F. Egidi, J. Goings, B. Peng, A. Petrone, 
 T. Henderson, D. Ranasinghe, V. G. Zakrzewski, J. Gao, N. Rega, 
 G. Zheng, W. Liang, M. Hada, M. Ehara, K. Toyota, R. Fukuda, 
 J. Hasegawa, M. Ishida, T. Nakajima, Y. Honda, O. Kitao, H. Nakai, 
 T. Vreven, K. Throssell, J. A. Montgomery, Jr., J. E. Peralta, 
 F. Ogliaro, M. J. Bearpark, J. J. Heyd, E. N. Brothers, K. N. Kudin, 
 V. N. Staroverov, T. A. Keith, R. Kobayashi, J. Normand, 
 K. Raghavachari, A. P. Rendell, J. C. Burant, S. S. Iyengar, 
 J. Tomasi, M. Cossi, J. M. Millam, M. Klene, C. Adamo, R. Cammi, 
 J. W. Ochterski, R. L. Martin, K. Morokuma, O. Farkas, 
 J. B. Foresman, and D. J. Fox, Gaussian, Inc., Wallingford CT, 2019.
 
 ******************************************
 Gaussian 16:  ES64L-G16RevC.01  3-Jul-2019
                 9-Apr-2026 
 ******************************************
 %NProcShared=16
 Will use up to   16 processors via shared memory.
 %mem=24GB
 %chk=A-T_opt.chk
 Default route: MaxDisk=2TB
 --------------------------------------------------------
 # opt freq B3LYP/6-311+G(2d,p) scf=xqc geom=connectivity
 --------------------------------------------------------
 1/18=20,19=15,26=3,38=1,57=2/1,3;
 2/9=110,12=2,17=6,18=5,40=1/2;
 3/5=4,6=6,7=112,11=2,25=1,30=1,71=1,74=-5/1,2,3;
 4//1;
 5/5=2,8=3,13=1,38=5/2,8;
 6/7=2,8=2,9=2,10=2,28=1/1;
 7//1,2,3,16;
 1/18=20,19=15,26=3/3(2);
 2/9=110/2;
 99//99;
 2/9=110/2;
 3/5=4,6=6,7=112,11=2,25=1,30=1,71=1,74=-5/1,2,3;
 4/5=5,16=3,69=1/1;
 5/5=2,8=3,13=1,38=5/2,8;
 7//1,2,3,16;
 1/18=20,19=15,26=3/3(-5);
 2/9=110/2;
 6/7=2,8=2,9=2,10=2,19=2,28=1/1;
 99/9=1/99;
 -------------------------------
 Optimization of Adenine-Thymine
 -------------------------------
 Symbolic Z-matrix:
 Charge =  0 Multiplicity = 1
 N                    -3.49589   2.6945    3.02167 
 C                    -4.61418   2.95527   2.27444 
 H                    -5.56717   3.10065   2.76134 
 N                    -4.38333   3.06257   0.99961 
 C                    -3.01289   2.85888   0.88772 
 C                    -2.14671   2.84617  -0.21209 
 N                    -2.54974   3.052    -1.47336 
 H                    -1.87853   3.03112  -2.22777 
 H                    -3.52473   3.22802  -1.66961 
 N                    -0.84876   2.61434   0.02704 
 C                    -0.45464   2.41075   1.28088 
 H                     0.58684   2.22214   1.49569 
 N                    -1.17202   2.39905   2.38887 
 C                    -2.47372   2.63487   2.11968 
 N                     3.32046   2.35354  -2.56283 
 C                     2.8801    2.64202  -3.82765 
 H                     3.56978   2.617    -4.65838 
 C                     1.58893   2.90589  -4.07024 
 C                     1.09679   3.22283  -5.45131 
 H                     1.30548   2.38269  -6.11366 
 H                     0.02228   3.40362  -5.42211 
 H                     1.60448   4.11282  -5.82316 
 C                     0.62136   2.89404  -3.00382 
 O                    -0.58045   3.12304  -3.13074 
 N                     1.15203   2.59443  -1.76566 
 H                     0.45749   2.57345  -0.92586 
 C                     2.47483   2.31875  -1.48529 
 O                     2.85047   2.0637   -0.35293 
 H                    -3.56722   2.4       3.99222 
 H                     4.32708   2.19301  -2.62009 
 
 Add virtual bond connecting atoms O24        and H8         Dist= 2.99D+00.
 Add virtual bond connecting atoms H26        and N10        Dist= 3.06D+00.

 GradGradGradGradGradGradGradGradGradGradGradGradGradGradGradGradGradGrad
 Berny optimization.
 Initialization pass.
                           ----------------------------
                           !    Initial Parameters    !
                           ! (Angstroms and Degrees)  !
 --------------------------                            --------------------------
 ! Name  Definition              Value          Derivative Info.                !
 --------------------------------------------------------------------------------
 ! R1    R(1,2)                  1.37           estimate D2E/DX2                !
 ! R2    R(1,14)                 1.3645         estimate D2E/DX2                !
 ! R3    R(1,29)                 1.0168         estimate D2E/DX2                !
 ! R4    R(2,3)                  1.08           estimate D2E/DX2                !
 ! R5    R(2,4)                  1.3            estimate D2E/DX2                !
 ! R6    R(4,5)                  1.39           estimate D2E/DX2                !
 ! R7    R(5,6)                  1.4            estimate D2E/DX2                !
 ! R8    R(5,14)                 1.3633         estimate D2E/DX2                !
 ! R9    R(6,7)                  1.34           estimate D2E/DX2                !
 ! R10   R(6,10)                 1.34           estimate D2E/DX2                !
 ! R11   R(7,8)                  1.01           estimate D2E/DX2                !
 ! R12   R(7,9)                  1.01           estimate D2E/DX2                !
 ! R13   R(8,24)                 1.5839         estimate D2E/DX2                !
 ! R14   R(10,11)                1.33           estimate D2E/DX2                !
 ! R15   R(10,26)                1.6174         estimate D2E/DX2                !
 ! R16   R(11,12)                1.08           estimate D2E/DX2                !
 ! R17   R(11,13)                1.32           estimate D2E/DX2                !
 ! R18   R(13,14)                1.35           estimate D2E/DX2                !
 ! R19   R(15,16)                1.37           estimate D2E/DX2                !
 ! R20   R(15,27)                1.3702         estimate D2E/DX2                !
 ! R21   R(15,30)                1.0209         estimate D2E/DX2                !
 ! R22   R(16,17)                1.08           estimate D2E/DX2                !
 ! R23   R(16,18)                1.34           estimate D2E/DX2                !
 ! R24   R(18,19)                1.5            estimate D2E/DX2                !
 ! R25   R(18,23)                1.44           estimate D2E/DX2                !
 ! R26   R(19,20)                1.09           estimate D2E/DX2                !
 ! R27   R(19,21)                1.09           estimate D2E/DX2                !
 ! R28   R(19,22)                1.09           estimate D2E/DX2                !
 ! R29   R(23,24)                1.23           estimate D2E/DX2                !
 ! R30   R(23,25)                1.38           estimate D2E/DX2                !
 ! R31   R(25,26)                1.09           estimate D2E/DX2                !
 ! R32   R(25,27)                1.38           estimate D2E/DX2                !
 ! R33   R(27,28)                1.22           estimate D2E/DX2                !
 ! A1    A(2,1,14)             105.0253         estimate D2E/DX2                !
 ! A2    A(2,1,29)             121.2323         estimate D2E/DX2                !
 ! A3    A(14,1,29)            132.1341         estimate D2E/DX2                !
 ! A4    A(1,2,3)              120.0            estimate D2E/DX2                !
 ! A5    A(1,2,4)              113.9301         estimate D2E/DX2                !
 ! A6    A(3,2,4)              125.9931         estimate D2E/DX2                !
 ! A7    A(2,4,5)              104.0            estimate D2E/DX2                !
 ! A8    A(4,5,6)              132.42           estimate D2E/DX2                !
 ! A9    A(4,5,14)             109.9533         estimate D2E/DX2                !
 ! A10   A(6,5,14)             117.6267         estimate D2E/DX2                !
 ! A11   A(5,6,7)              123.5001         estimate D2E/DX2                !
 ! A12   A(5,6,10)             117.43           estimate D2E/DX2                !
 ! A13   A(7,6,10)             119.0699         estimate D2E/DX2                !
 ! A14   A(6,7,8)              120.0001         estimate D2E/DX2                !
 ! A15   A(6,7,9)              120.0            estimate D2E/DX2                !
 ! A16   A(8,7,9)              119.9999         estimate D2E/DX2                !
 ! A17   A(6,10,11)            118.8001         estimate D2E/DX2                !
 ! A18   A(6,10,26)            132.9619         estimate D2E/DX2                !
 ! A19   A(11,10,26)           108.1935         estimate D2E/DX2                !
 ! A20   A(10,11,12)           120.0001         estimate D2E/DX2                !
 ! A21   A(10,11,13)           129.1701         estimate D2E/DX2                !
 ! A22   A(12,11,13)           110.8299         estimate D2E/DX2                !
 ! A23   A(11,13,14)           110.8            estimate D2E/DX2                !
 ! A24   A(1,14,5)             107.0914         estimate D2E/DX2                !
 ! A25   A(1,14,13)            126.7356         estimate D2E/DX2                !
 ! A26   A(5,14,13)            126.1731         estimate D2E/DX2                !
 ! A27   A(16,15,27)           122.2091         estimate D2E/DX2                !
 ! A28   A(16,15,30)           107.3528         estimate D2E/DX2                !
 ! A29   A(27,15,30)           130.4376         estimate D2E/DX2                !
 ! A30   A(15,16,17)           120.0            estimate D2E/DX2                !
 ! A31   A(15,16,18)           121.22           estimate D2E/DX2                !
 ! A32   A(17,16,18)           118.7262         estimate D2E/DX2                !
 ! A33   A(16,18,19)           121.6301         estimate D2E/DX2                !
 ! A34   A(16,18,23)           120.7801         estimate D2E/DX2                !
 ! A35   A(19,18,23)           117.5899         estimate D2E/DX2                !
 ! A36   A(18,19,20)           109.5            estimate D2E/DX2                !
 ! A37   A(18,19,21)           109.5001         estimate D2E/DX2                !
 ! A38   A(18,19,22)           109.5001         estimate D2E/DX2                !
 ! A39   A(20,19,21)           109.4424         estimate D2E/DX2                !
 ! A40   A(20,19,22)           109.4423         estimate D2E/DX2                !
 ! A41   A(21,19,22)           109.4424         estimate D2E/DX2                !
 ! A42   A(18,23,24)           125.3501         estimate D2E/DX2                !
 ! A43   A(18,23,25)           114.0701         estimate D2E/DX2                !
 ! A44   A(24,23,25)           120.5798         estimate D2E/DX2                !
 ! A45   A(8,24,23)            136.9802         estimate D2E/DX2                !
 ! A46   A(23,25,26)           116.7701         estimate D2E/DX2                !
 ! A47   A(23,25,27)           126.46           estimate D2E/DX2                !
 ! A48   A(26,25,27)           116.7699         estimate D2E/DX2                !
 ! A49   A(15,27,25)           115.2607         estimate D2E/DX2                !
 ! A50   A(15,27,28)           123.0392         estimate D2E/DX2                !
 ! A51   A(25,27,28)           121.7001         estimate D2E/DX2                !
 ! A52   L(7,8,24,12,-1)       167.517          estimate D2E/DX2                !
 ! A53   L(10,26,25,8,-1)      165.4781         estimate D2E/DX2                !
 ! A54   L(7,8,24,12,-2)       186.9452         estimate D2E/DX2                !
 ! A55   L(10,26,25,8,-2)      179.9942         estimate D2E/DX2                !
 ! D1    D(14,1,2,3)          -177.0003         estimate D2E/DX2                !
 ! D2    D(14,1,2,4)            -0.0001         estimate D2E/DX2                !
 ! D3    D(29,1,2,3)            15.8084         estimate D2E/DX2                !
 ! D4    D(29,1,2,4)          -167.1915         estimate D2E/DX2                !
 ! D5    D(2,1,14,5)             0.0002         estimate D2E/DX2                !
 ! D6    D(2,1,14,13)         -180.0            estimate D2E/DX2                !
 ! D7    D(29,1,14,5)          165.1896         estimate D2E/DX2                !
 ! D8    D(29,1,14,13)         -14.8106         estimate D2E/DX2                !
 ! D9    D(1,2,4,5)             -0.0001         estimate D2E/DX2                !
 ! D10   D(3,2,4,5)            176.7888         estimate D2E/DX2                !
 ! D11   D(2,4,5,6)           -179.9999         estimate D2E/DX2                !
 ! D12   D(2,4,5,14)             0.0002         estimate D2E/DX2                !
 ! D13   D(4,5,6,7)              0.0            estimate D2E/DX2                !
 ! D14   D(4,5,6,10)          -179.9998         estimate D2E/DX2                !
 ! D15   D(14,5,6,7)           179.9999         estimate D2E/DX2                !
 ! D16   D(14,5,6,10)            0.0            estimate D2E/DX2                !
 ! D17   D(4,5,14,1)            -0.0003         estimate D2E/DX2                !
 ! D18   D(4,5,14,13)          179.9999         estimate D2E/DX2                !
 ! D19   D(6,5,14,1)           179.9998         estimate D2E/DX2                !
 ! D20   D(6,5,14,13)            0.0            estimate D2E/DX2                !
 ! D21   D(5,6,7,8)           -180.0            estimate D2E/DX2                !
 ! D22   D(5,6,7,9)              0.0001         estimate D2E/DX2                !
 ! D23   D(10,6,7,8)            -0.0001         estimate D2E/DX2                !
 ! D24   D(10,6,7,9)           179.9999         estimate D2E/DX2                !
 ! D25   D(5,6,10,11)            0.0            estimate D2E/DX2                !
 ! D26   D(5,6,10,26)         -177.2503         estimate D2E/DX2                !
 ! D27   D(7,6,10,11)         -179.9999         estimate D2E/DX2                !
 ! D28   D(7,6,10,26)            2.7498         estimate D2E/DX2                !
 ! D29   D(6,7,24,23)            7.234          estimate D2E/DX2                !
 ! D30   D(9,7,24,23)         -177.7977         estimate D2E/DX2                !
 ! D31   D(6,10,11,12)        -179.9999         estimate D2E/DX2                !
 ! D32   D(6,10,11,13)           0.0            estimate D2E/DX2                !
 ! D33   D(26,10,11,12)         -2.1177         estimate D2E/DX2                !
 ! D34   D(26,10,11,13)        177.8822         estimate D2E/DX2                !
 ! D35   D(6,10,25,23)           1.1428         estimate D2E/DX2                !
 ! D36   D(6,10,25,27)        -178.3221         estimate D2E/DX2                !
 ! D37   D(11,10,25,23)       -176.4943         estimate D2E/DX2                !
 ! D38   D(11,10,25,27)          4.0408         estimate D2E/DX2                !
 ! D39   D(10,11,13,14)          0.0            estimate D2E/DX2                !
 ! D40   D(12,11,13,14)        179.9999         estimate D2E/DX2                !
 ! D41   D(11,13,14,1)        -179.9998         estimate D2E/DX2                !
 ! D42   D(11,13,14,5)           0.0            estimate D2E/DX2                !
 ! D43   D(27,15,16,17)       -177.3            estimate D2E/DX2                !
 ! D44   D(27,15,16,18)          0.0            estimate D2E/DX2                !
 ! D45   D(30,15,16,17)          2.918          estimate D2E/DX2                !
 ! D46   D(30,15,16,18)       -179.782          estimate D2E/DX2                !
 ! D47   D(16,15,27,25)          0.0            estimate D2E/DX2                !
 ! D48   D(16,15,27,28)        179.9999         estimate D2E/DX2                !
 ! D49   D(30,15,27,25)        179.7266         estimate D2E/DX2                !
 ! D50   D(30,15,27,28)         -0.2735         estimate D2E/DX2                !
 ! D51   D(15,16,18,19)       -179.9999         estimate D2E/DX2                !
 ! D52   D(15,16,18,23)          0.0            estimate D2E/DX2                !
 ! D53   D(17,16,18,19)         -2.6663         estimate D2E/DX2                !
 ! D54   D(17,16,18,23)        177.3336         estimate D2E/DX2                !
 ! D55   D(16,18,19,20)         60.0            estimate D2E/DX2                !
 ! D56   D(16,18,19,21)       -179.9999         estimate D2E/DX2                !
 ! D57   D(16,18,19,22)        -59.9999         estimate D2E/DX2                !
 ! D58   D(23,18,19,20)       -119.9999         estimate D2E/DX2                !
 ! D59   D(23,18,19,21)          0.0001         estimate D2E/DX2                !
 ! D60   D(23,18,19,22)        120.0002         estimate D2E/DX2                !
 ! D61   D(16,18,23,24)       -179.9999         estimate D2E/DX2                !
 ! D62   D(16,18,23,25)          0.0            estimate D2E/DX2                !
 ! D63   D(19,18,23,24)          0.0001         estimate D2E/DX2                !
 ! D64   D(19,18,23,25)        179.9999         estimate D2E/DX2                !
 ! D65   D(18,23,24,8)         171.4828         estimate D2E/DX2                !
 ! D66   D(25,23,24,8)          -8.5171         estimate D2E/DX2                !
 ! D67   D(18,23,25,26)       -179.9999         estimate D2E/DX2                !
 ! D68   D(18,23,25,27)          0.0            estimate D2E/DX2                !
 ! D69   D(24,23,25,26)         -0.0001         estimate D2E/DX2                !
 ! D70   D(24,23,25,27)        179.9999         estimate D2E/DX2                !
 ! D71   D(23,25,27,15)          0.0            estimate D2E/DX2                !
 ! D72   D(23,25,27,28)       -179.9999         estimate D2E/DX2                !
 ! D73   D(26,25,27,15)        179.9999         estimate D2E/DX2                !
 ! D74   D(26,25,27,28)          0.0            estimate D2E/DX2                !
 --------------------------------------------------------------------------------
 Trust Radius=3.00D-01 FncErr=1.00D-07 GrdErr=1.00D-06 EigMax=2.50D+02 EigMin=1.00D-04
 Number of steps in this run=    172 maximum allowed number of steps=    180.
 GradGradGradGradGradGradGradGradGradGradGradGradGradGradGradGradGradGrad

                          Input orientation:                          
 ---------------------------------------------------------------------
 Center     Atomic      Atomic             Coordinates (Angstroms)
 Number     Number       Type             X           Y           Z
 ---------------------------------------------------------------------
      1          7           0       -3.495894    2.694505    3.021665
      2          6           0       -4.614177    2.955266    2.274440
      3          1           0       -5.567169    3.100647    2.761340
      4          7           0       -4.383327    3.062571    0.999609
      5          6           0       -3.012893    2.858880    0.887715
      6          6           0       -2.146711    2.846172   -0.212089
      7          7           0       -2.549741    3.052000   -1.473358
      8          1           0       -1.878530    3.031120   -2.227771
      9          1           0       -3.524731    3.228020   -1.669606
     10          7           0       -0.848763    2.614339    0.027043
     11          6           0       -0.454639    2.410752    1.280884
     12          1           0        0.586843    2.222145    1.495688
     13          7           0       -1.172021    2.399052    2.388867
     14          6           0       -2.473724    2.634866    2.119677
     15          7           0        3.320464    2.353539   -2.562831
     16          6           0        2.880100    2.642016   -3.827648
     17          1           0        3.569777    2.616997   -4.658383
     18          6           0        1.588931    2.905886   -4.070244
     19          6           0        1.096789    3.222828   -5.451310
     20          1           0        1.305478    2.382688   -6.113665
     21          1           0        0.022284    3.403619   -5.422105
     22          1           0        1.604476    4.112817   -5.823163
     23          6           0        0.621360    2.894035   -3.003816
     24          8           0       -0.580450    3.123038   -3.130742
     25          7           0        1.152033    2.594428   -1.765663
     26          1           0        0.457486    2.573446   -0.925864
     27          6           0        2.474830    2.318749   -1.485291
     28          8           0        2.850466    2.063697   -0.352928
     29          1           0       -3.567216    2.399995    3.992219
     30          1           0        4.327075    2.193008   -2.620088
 ---------------------------------------------------------------------
                    Distance matrix (angstroms):
                    1          2          3          4          5
     1  N    0.000000
     2  C    1.369999   0.000000
     3  H    2.126711   1.080001   0.000000
     4  N    2.238687   1.300000   2.122882   0.000000
     5  C    2.194095   2.120473   3.176987   1.390000   0.000000
     6  C    3.507202   3.504727   4.539336   2.552938   1.400000
     7  N    4.607412   4.279865   5.199991   3.078590   2.413809
     8  H    5.503250   5.268721   6.205007   4.085459   3.320045
     9  H    4.721599   4.100827   4.880682   2.808784   2.634033
    10  N    3.997687   4.398337   5.475056   3.693229   2.341798
    11  C    3.515689   4.311079   5.367091   3.992314   2.626797
    12  H    4.384116   5.309852   6.343935   5.065077   3.705828
    13  N    2.426543   3.488682   4.466352   3.561289   2.419443
    14  C    1.364541   2.169826   3.193444   2.254788   1.363311
    15  N    8.818481   9.312346  10.387251   8.517165   7.230010
    16  C    9.357839   9.669426  10.722941   8.731360   7.550433
    17  H   10.436133  10.731056  11.780068   9.770531   8.610996
    18  C    8.728992   8.873330   9.895364   7.835548   6.764639
    19  C    9.652107   9.611136  10.576903   8.465915   7.563411
    20  H   10.324953  10.282531  11.247864   9.133641   8.239806
    21  H    9.174840   8.996366   9.914764   7.795135   7.023024
    22  H   10.308073  10.275346  11.231682   9.138218   8.241865
    23  C    7.300550   7.434688   8.460355   6.411140   5.324758
    24  O    6.821699   6.746487   7.719100   5.614742   4.704738
    25  N    6.673212   7.049951   8.117740   6.205328   4.945398
    26  H    5.588100   6.009118   7.083070   5.232606   3.926076
    27  C    7.490220   8.049519   9.127924   7.332279   6.003166
    28  O    7.215406   7.963595   9.034960   7.426632   6.045700
    29  H    1.016758   2.086916   2.450671   3.171870   3.186816
    30  H    9.658144  10.221714  11.299542   9.472563   8.162304
                    6          7          8          9         10
     6  C    0.000000
     7  N    1.340000   0.000000
     8  H    2.041838   1.009999   0.000000
     9  H    2.041838   1.010000   1.749370   0.000000
    10  N    1.340000   2.309995   2.513625   3.227386   0.000000
    11  C    2.298187   3.519446   3.837054   4.335756   1.330000
    12  H    3.283021   4.397961   4.538354   5.285443   2.090861
    13  N    2.813344   4.152257   4.712961   4.763783   2.393545
    14  C    2.364047   3.617967   4.405857   3.976822   2.649536
    15  N    5.971489   6.011165   5.253658   6.958395   4.915070
    16  C    6.195384   5.932448   5.035431   6.783981   5.363192
    17  H    7.245709   6.912461   5.980253   7.722576   6.440242
    18  C    5.370656   4.888125   3.928571   5.658300   4.776516
    19  C    6.173459   5.399117   4.390954   5.971579   5.845321
    20  H    6.852811   6.069855   5.065426   6.617791   6.511735
    21  H    5.670940   4.725627   3.735722   5.166566   5.574486
    22  H    6.867310   6.107672   5.121352   6.659104   6.518337
    23  C    3.931698   3.524647   2.621162   4.368264   3.380177
    24  O    3.323908   2.574893   1.583925   3.288575   3.209731
    25  N    3.654953   3.741383   3.096540   4.720465   2.686517
    26  H    2.713982   3.093894   2.713190   4.103617   1.617402
    27  C    4.822641   5.077807   4.473309   6.070871   3.663441
    28  O    5.060028   5.603066   5.178257   6.613049   3.759239
    29  H    4.460170   5.597580   6.475975   5.722210   4.812334
    30  H    6.937939   7.024490   6.274224   7.976561   5.828732
                   11         12         13         14         15
    11  C    0.000000
    12  H    1.080000   0.000000
    13  N    1.320000   1.980573   0.000000
    14  C    2.197841   3.150678   1.350000   0.000000
    15  N    5.387841   4.895051   6.686090   7.455041   0.000000
    16  C    6.105004   5.811474   7.424539   8.002135   1.370001
    17  H    7.177281   6.850285   8.496816   9.081097   2.126712
    18  C    5.749426   5.696602   7.042715   7.409030   2.361268
    19  C    6.956208   7.037201   8.203321   8.391311   3.747492
    20  H    7.601194   7.644898   8.856145   9.062774   4.082822
    21  H    6.792887   7.040630   7.965350   7.981198   4.489555
    22  H    7.589761   7.627306   8.836479   9.050125   4.082822
    23  C    4.444097   4.549524   5.704582   5.991402   2.787788
    24  O    4.470529   4.855723   5.598232   5.602652   4.016439
    25  N    3.449142   3.330833   4.764401   5.314473   2.322842
    26  H    2.393362   2.450319   3.697722   4.227421   3.305248
    27  C    4.030134   3.529882   5.321191   6.130572   1.370182
    28  O    3.703176   2.926854   4.879580   5.898051   2.277846
    29  H    4.127904   4.849795   2.882308   2.181125   9.508469
    30  H    6.174933   5.561457   7.441246   8.301294   1.020938
                   16         17         18         19         20
    16  C    0.000000
    17  H    1.080001   0.000000
    18  C    1.339999   2.086413   0.000000
    19  C    2.480688   2.666727   1.500000   0.000000
    20  H    2.787930   2.701814   2.128298   1.090000   0.000000
    21  H    3.359977   3.713052   2.128298   1.090000   1.779646
    22  H    2.787929   2.730677   2.128298   1.090000   1.779645
    23  C    2.417461   3.392271   1.440000   2.514828   3.225004
    24  O    3.562649   4.451309   2.374033   2.864982   3.605921
    25  N    2.690774   3.770123   2.366215   3.739242   4.355858
    26  H    3.780755   4.860036   3.358244   4.616282   5.260109
    27  C    2.399038   3.369922   2.794911   4.294841   4.774235
    28  O    3.522643   4.400057   4.014871   5.514750   5.972841
    29  H   10.137889  11.216804   9.583584  10.564575  11.219284
    30  H    1.937408   2.215381   3.179400   4.417136   4.622889
                   21         22         23         24         25
    21  H    0.000000
    22  H    1.779646   0.000000
    23  C    2.542969   3.225006   0.000000
    24  O    2.385866   3.605925   1.230001   0.000000
    25  N    3.911610   4.355860   1.380001   2.268120   0.000000
    26  H    4.592904   5.260112   2.108914   2.498170   1.089999
    27  C    4.763448   4.774236   2.464189   3.562181   1.380000
    28  O    5.957396   5.972844   3.561683   4.539785   2.272041
    29  H   10.125279  11.225947   8.169013   7.757586   7.447304
    30  H    5.277131   4.621461   3.790912   5.020910   3.312412
                   26         27         28         29         30
    26  H    0.000000
    27  C    2.108911   0.000000
    28  O    2.512858   1.220000   0.000000
    29  H    6.357347   8.155737   7.757580   0.000000
    30  H    4.241326   2.175865   2.708711  10.299772   0.000000
 Stoichiometry    C10H11N7O2
 Framework group  C1[X(C10H11N7O2)]
 Deg. of freedom    84
 Full point group                 C1      NOp   1
 Largest Abelian subgroup         C1      NOp   1
 Largest concise Abelian subgroup C1      NOp   1
                         Standard orientation:                         
 ---------------------------------------------------------------------
 Center     Atomic      Atomic             Coordinates (Angstroms)
 Number     Number       Type             X           Y           Z
 ---------------------------------------------------------------------
      1          7           0        4.859608    0.617578    0.062351
      2          6           0        5.131298   -0.724782    0.028389
      3          1           0        6.152472   -1.070794    0.090690
      4          7           0        4.071544   -1.476247   -0.018746
      5          6           0        3.016889   -0.570822   -0.016059
      6          6           0        1.627554   -0.739222   -0.053349
      7          7           0        1.028796   -1.936973   -0.103172
      8          1           0        0.020900   -1.997052   -0.128363
      9          1           0        1.585389   -2.779678   -0.115534
     10          7           0        0.871056    0.366701   -0.037732
     11          6           0        1.470942    1.552698    0.011762
     12          1           0        0.880022    2.456597    0.025164
     13          7           0        2.760040    1.834039    0.050114
     14          6           0        3.498102    0.703780    0.033339
     15          7           0       -3.916347    1.479365   -0.012054
     16          6           0       -4.490300    0.235627    0.012333
     17          1           0       -5.565042    0.136034   -0.025252
     18          6           0       -3.740760   -0.875015    0.028553
     19          6           0       -4.359412   -2.241234    0.055287
     20          1           0       -4.981396   -2.376380   -0.829570
     21          1           0       -3.573467   -2.996413    0.065102
     22          1           0       -4.973568   -2.345108    0.949783
     23          6           0       -2.303064   -0.793959    0.020800
     24          8           0       -1.536004   -1.755383    0.034319
     25          7           0       -1.812158    0.495536   -0.004025
     26          1           0       -0.728006    0.608079   -0.010776
     27          6           0       -2.557717    1.656677   -0.021151
     28          8           0       -2.030610    2.756718   -0.042807
     29          1           0        5.590224    1.307433   -0.092880
     30          1           0       -4.673578    2.164122   -0.017047
 ---------------------------------------------------------------------
 Rotational constants (GHZ):           0.9148207           0.1899432           0.1574910
 Standard basis: 6-311+G(2d,p) (5D, 7F)
 There are   617 symmetry adapted cartesian basis functions of A   symmetry.
 There are   579 symmetry adapted basis functions of A   symmetry.
   579 basis functions,   886 primitive gaussians,   617 cartesian basis functions
    68 alpha electrons       68 beta electrons
       nuclear repulsion energy      1384.7952691108 Hartrees.
 NAtoms=   30 NActive=   30 NUniq=   30 SFac= 1.00D+00 NAtFMM=   60 NAOKFM=F Big=F
 Integral buffers will be    131072 words long.
 Raffenetti 2 integral format.
 Two-electron integral symmetry is turned on.
 One-electron integrals computed using PRISM.
 NBasis=   579 RedAO= T EigKep=  1.87D-06  NBF=   579
 NBsUse=   578 1.00D-06 EigRej=  2.85D-07 NBFU=   578
 ExpMin= 4.38D-02 ExpMax= 8.59D+03 ExpMxC= 1.30D+03 IAcc=3 IRadAn=         5 AccDes= 0.00D+00
 Harris functional with IExCor=  402 and IRadAn=       5 diagonalized for initial guess.
 HarFok:  IExCor=  402 AccDes= 0.00D+00 IRadAn=         5 IDoV= 1 UseB2=F ITyADJ=14
 ICtDFT=  3500011 ScaDFX=  1.000000  1.000000  1.000000  1.000000
 FoFCou: FMM=F IPFlag=           0 FMFlag=      100000 FMFlg1=           0
         NFxFlg=           0 DoJE=T BraDBF=F KetDBF=T FulRan=T
         wScrn=  0.000000 ICntrl=       500 IOpCl=  0 I1Cent=   200000004 NGrid=           0
         NMat0=    1 NMatS0=      1 NMatT0=    0 NMatD0=    1 NMtDS0=    0 NMtDT0=    0
 Petite list used in FoFCou.
 Requested convergence on RMS density matrix=1.00D-08 within  32 cycles.
 Requested convergence on MAX density matrix=1.00D-06.
 Requested convergence on             energy=1.00D-06.
 No special actions if energy rises.
 SCF Done:  E(RB3LYP) =  -921.739358722     A.U. after   15 cycles
            NFock= 15  Conv=0.47D-08     -V/T= 2.0033
 QCSCF skips out because SCF is already converged.

 **********************************************************************

            Population analysis using the SCF Density.

 **********************************************************************

 Orbital symmetries:
       Occupied  (A) (A) (A) (A) (A) (A) (A) (A) (A) (A) (A) (A)
                 (A) (A) (A) (A) (A) (A) (A) (A) (A) (A) (A) (A)
                 (A) (A) (A) (A) (A) (A) (A) (A) (A) (A) (A) (A)
                 (A) (A) (A) (A) (A) (A) (A) (A) (A) (A) (A) (A)
                 (A) (A) (A) (A) (A) (A) (A) (A) (A) (A) (A) (A)
                 (A) (A) (A) (A) (A) (A) (A) (A)
       Virtual   (A) (A) (A) (A) (A) (A) (A) (A) (A) (A) (A) (A)
                 (A) (A) (A) (A) (A) (A) (A) (A) (A) (A) (A) (A)
                 (A) (A) (A) (A) (A) (A) (A) (A) (A) (A) (A) (A)
                 (A) (A) (A) (A) (A) (A) (A) (A) (A) (A) (A) (A)
                 (A) (A) (A) (A) (A) (A) (A) (A) (A) (A) (A) (A)
                 (A) (A) (A) (A) (A) (A) (A) (A) (A) (A) (A) (A)
                 (A) (A) (A) (A) (A) (A) (A) (A) (A) (A) (A) (A)
                 (A) (A) (A) (A) (A) (A) (A) (A) (A) (A) (A) (A)
                 (A) (A) (A) (A) (A) (A) (A) (A) (A) (A) (A) (A)
                 (A) (A) (A) (A) (A) (A) (A) (A) (A) (A) (A) (A)
                 (A) (A) (A) (A) (A) (A) (A) (A) (A) (A) (A) (A)
                 (A) (A) (A) (A) (A) (A) (A) (A) (A) (A) (A) (A)
                 (A) (A) (A) (A) (A) (A) (A) (A) (A) (A) (A) (A)
                 (A) (A) (A) (A) (A) (A) (A) (A) (A) (A) (A) (A)
                 (A) (A) (A) (A) (A) (A) (A) (A) (A) (A) (A) (A)
                 (A) (A) (A) (A) (A) (A) (A) (A) (A) (A) (A) (A)
                 (A) (A) (A) (A) (A) (A) (A) (A) (A) (A) (A) (A)
                 (A) (A) (A) (A) (A) (A) (A) (A) (A) (A) (A) (A)
                 (A) (A) (A) (A) (A) (A) (A) (A) (A) (A) (A) (A)
                 (A) (A) (A) (A) (A) (A) (A) (A) (A) (A) (A) (A)
                 (A) (A) (A) (A) (A) (A) (A) (A) (A) (A) (A) (A)
                 (A) (A) (A) (A) (A) (A) (A) (A) (A) (A) (A) (A)
                 (A) (A) (A) (A) (A) (A) (A) (A) (A) (A) (A) (A)
                 (A) (A) (A) (A) (A) (A) (A) (A) (A) (A) (A) (A)
                 (A) (A) (A) (A) (A) (A) (A) (A) (A) (A) (A) (A)
                 (A) (A) (A) (A) (A) (A) (A) (A) (A) (A) (A) (A)
                 (A) (A) (A) (A) (A) (A) (A) (A) (A) (A) (A) (A)
                 (A) (A) (A) (A) (A) (A) (A) (A) (A) (A) (A) (A)
                 (A) (A) (A) (A) (A) (A) (A) (A) (A) (A) (A) (A)
                 (A) (A) (A) (A) (A) (A) (A) (A) (A) (A) (A) (A)
                 (A) (A) (A) (A) (A) (A) (A) (A) (A) (A) (A) (A)
                 (A) (A) (A) (A) (A) (A) (A) (A) (A) (A) (A) (A)
                 (A) (A) (A) (A) (A) (A) (A) (A) (A) (A) (A) (A)
                 (A) (A) (A) (A) (A) (A) (A) (A) (A) (A) (A) (A)
                 (A) (A) (A) (A) (A) (A) (A) (A) (A) (A) (A) (A)
                 (A) (A) (A) (A) (A) (A) (A) (A) (A) (A) (A) (A)
                 (A) (A) (A) (A) (A) (A) (A) (A) (A) (A) (A) (A)
                 (A) (A) (A) (A) (A) (A) (A) (A) (A) (A) (A) (A)
                 (A) (A) (A) (A) (A) (A) (A) (A) (A) (A) (A) (A)
                 (A) (A) (A) (A) (A) (A) (A) (A) (A) (A) (A) (A)
                 (A) (A) (A) (A) (A) (A) (A) (A) (A) (A) (A) (A)
                 (A) (A) (A) (A) (A) (A) (A) (A) (A) (A) (A) (A)
                 (A) (A) (A) (A) (A) (A)
 The electronic state is 1-A.
 Alpha  occ. eigenvalues --  -19.10631 -19.09456 -14.38716 -14.38099 -14.34663
 Alpha  occ. eigenvalues --  -14.31641 -14.31452 -14.31245 -14.30456 -10.31853
 Alpha  occ. eigenvalues --  -10.29049 -10.26363 -10.24660 -10.24486 -10.24342
 Alpha  occ. eigenvalues --  -10.23150 -10.19735 -10.19098 -10.17322  -1.07734
 Alpha  occ. eigenvalues --   -1.05333  -1.04864  -0.99189  -0.98579  -0.93746
 Alpha  occ. eigenvalues --   -0.92278  -0.89346  -0.86772  -0.82407  -0.77596
 Alpha  occ. eigenvalues --   -0.71836  -0.68750  -0.67560  -0.66692  -0.65868
 Alpha  occ. eigenvalues --   -0.63053  -0.59041  -0.58273  -0.56318  -0.55861
 Alpha  occ. eigenvalues --   -0.52485  -0.51909  -0.49952  -0.49148  -0.48631
 Alpha  occ. eigenvalues --   -0.47673  -0.46631  -0.45145  -0.44023  -0.43493
 Alpha  occ. eigenvalues --   -0.42845  -0.42439  -0.41538  -0.40787  -0.39861
 Alpha  occ. eigenvalues --   -0.38956  -0.36226  -0.36107  -0.32540  -0.30877
 Alpha  occ. eigenvalues --   -0.29955  -0.29144  -0.28779  -0.27877  -0.27538
 Alpha  occ. eigenvalues --   -0.26294  -0.24708  -0.22605
 Alpha virt. eigenvalues --   -0.05616  -0.02818  -0.02004  -0.00829  -0.00525
 Alpha virt. eigenvalues --    0.00302   0.00860   0.01626   0.02330   0.02617
 Alpha virt. eigenvalues --    0.02926   0.03551   0.04053   0.04653   0.04922
 Alpha virt. eigenvalues --    0.05827   0.06367   0.06534   0.06835   0.07367
 Alpha virt. eigenvalues --    0.08156   0.08910   0.09122   0.09198   0.10154
 Alpha virt. eigenvalues --    0.10404   0.11143   0.11555   0.11704   0.12132
 Alpha virt. eigenvalues --    0.12430   0.12806   0.13922   0.13981   0.14522
 Alpha virt. eigenvalues --    0.14726   0.15308   0.15535   0.15971   0.16554
 Alpha virt. eigenvalues --    0.16920   0.17168   0.17239   0.17679   0.18118
 Alpha virt. eigenvalues --    0.18243   0.18559   0.18675   0.19317   0.19885
 Alpha virt. eigenvalues --    0.20114   0.20758   0.20889   0.21128   0.21454
 Alpha virt. eigenvalues --    0.21603   0.21807   0.22292   0.22735   0.23311
 Alpha virt. eigenvalues --    0.23563   0.23872   0.23899   0.24177   0.24425
 Alpha virt. eigenvalues --    0.24958   0.25019   0.25610   0.26237   0.26524
 Alpha virt. eigenvalues --    0.26860   0.27203   0.27546   0.27781   0.28224
 Alpha virt. eigenvalues --    0.28609   0.29263   0.29469   0.29685   0.30148
 Alpha virt. eigenvalues --    0.30882   0.31062   0.31693   0.32283   0.32856
 Alpha virt. eigenvalues --    0.33240   0.34146   0.34416   0.34631   0.34908
 Alpha virt. eigenvalues --    0.35492   0.36736   0.37778   0.38406   0.38952
 Alpha virt. eigenvalues --    0.40163   0.40788   0.41055   0.41532   0.41904
 Alpha virt. eigenvalues --    0.42189   0.42914   0.43319   0.43418   0.45047
 Alpha virt. eigenvalues --    0.46936   0.47398   0.47672   0.48379   0.49515
 Alpha virt. eigenvalues --    0.50278   0.50437   0.51289   0.52486   0.53128
 Alpha virt. eigenvalues --    0.53694   0.54719   0.55120   0.55931   0.56253
 Alpha virt. eigenvalues --    0.57174   0.57335   0.57762   0.59228   0.59560
 Alpha virt. eigenvalues --    0.60107   0.60609   0.60945   0.61667   0.61949
 Alpha virt. eigenvalues --    0.62023   0.63058   0.63547   0.63790   0.64063
 Alpha virt. eigenvalues --    0.64813   0.65735   0.66453   0.67363   0.67881
 Alpha virt. eigenvalues --    0.68811   0.69939   0.70417   0.70913   0.71208
 Alpha virt. eigenvalues --    0.71915   0.73156   0.73687   0.74862   0.75450
 Alpha virt. eigenvalues --    0.75832   0.76063   0.76650   0.77193   0.77867
 Alpha virt. eigenvalues --    0.78154   0.78419   0.79025   0.80639   0.81061
 Alpha virt. eigenvalues --    0.81741   0.81973   0.82093   0.82498   0.82843
 Alpha virt. eigenvalues --    0.83182   0.84054   0.85052   0.85292   0.86019
 Alpha virt. eigenvalues --    0.86531   0.87034   0.87704   0.88383   0.88915
 Alpha virt. eigenvalues --    0.89473   0.90004   0.90816   0.91222   0.92340
 Alpha virt. eigenvalues --    0.92985   0.93407   0.93820   0.94119   0.95669
 Alpha virt. eigenvalues --    0.95708   0.96623   0.97764   0.98294   0.98884
 Alpha virt. eigenvalues --    0.99102   1.00209   1.01573   1.03107   1.03839
 Alpha virt. eigenvalues --    1.04104   1.05214   1.06048   1.07039   1.08803
 Alpha virt. eigenvalues --    1.09678   1.09769   1.11461   1.12926   1.13228
 Alpha virt. eigenvalues --    1.15677   1.16167   1.17697   1.18092   1.20018
 Alpha virt. eigenvalues --    1.20783   1.22220   1.22542   1.23468   1.24159
 Alpha virt. eigenvalues --    1.25357   1.26219   1.27036   1.28510   1.29391
 Alpha virt. eigenvalues --    1.29727   1.31644   1.32027   1.33587   1.34330
 Alpha virt. eigenvalues --    1.35208   1.35965   1.36390   1.37355   1.38461
 Alpha virt. eigenvalues --    1.38711   1.39175   1.39736   1.41077   1.41973
 Alpha virt. eigenvalues --    1.43445   1.43897   1.44781   1.46490   1.46851
 Alpha virt. eigenvalues --    1.47560   1.49848   1.50226   1.50979   1.51895
 Alpha virt. eigenvalues --    1.53717   1.54874   1.56163   1.56732   1.58044
 Alpha virt. eigenvalues --    1.58179   1.58751   1.59188   1.61411   1.62245
 Alpha virt. eigenvalues --    1.64882   1.65400   1.65992   1.67053   1.70418
 Alpha virt. eigenvalues --    1.71961   1.73393   1.74953   1.75728   1.76865
 Alpha virt. eigenvalues --    1.78220   1.78649   1.79432   1.79591   1.82474
 Alpha virt. eigenvalues --    1.83209   1.84355   1.85778   1.86134   1.88023
 Alpha virt. eigenvalues --    1.88497   1.90648   1.90968   1.91568   1.93193
 Alpha virt. eigenvalues --    1.94960   1.95243   1.95883   1.96351   1.97044
 Alpha virt. eigenvalues --    1.99682   2.01363   2.01600   2.02282   2.03741
 Alpha virt. eigenvalues --    2.05696   2.06279   2.07481   2.08631   2.11062
 Alpha virt. eigenvalues --    2.15121   2.15913   2.17670   2.19020   2.19959
 Alpha virt. eigenvalues --    2.22201   2.24894   2.25988   2.27692   2.30506
 Alpha virt. eigenvalues --    2.32368   2.36159   2.36481   2.37121   2.40855
 Alpha virt. eigenvalues --    2.43594   2.44388   2.47434   2.49707   2.53527
 Alpha virt. eigenvalues --    2.57647   2.58381   2.61551   2.62919   2.63250
 Alpha virt. eigenvalues --    2.64783   2.66262   2.69881   2.72147   2.73335
 Alpha virt. eigenvalues --    2.75549   2.76165   2.77178   2.80193   2.80751
 Alpha virt. eigenvalues --    2.82273   2.84183   2.84754   2.84950   2.85944
 Alpha virt. eigenvalues --    2.86685   2.87505   2.89506   2.92309   2.92528
 Alpha virt. eigenvalues --    2.94206   2.97375   2.98112   3.00337   3.03793
 Alpha virt. eigenvalues --    3.08930   3.10773   3.13474   3.15826   3.16442
 Alpha virt. eigenvalues --    3.18684   3.19673   3.19948   3.23083   3.28382
 Alpha virt. eigenvalues --    3.28417   3.30605   3.31253   3.32793   3.33261
 Alpha virt. eigenvalues --    3.33486   3.34968   3.35642   3.36551   3.38695
 Alpha virt. eigenvalues --    3.39458   3.40570   3.41102   3.42015   3.42426
 Alpha virt. eigenvalues --    3.43434   3.45556   3.45925   3.47012   3.47323
 Alpha virt. eigenvalues --    3.48557   3.49877   3.50111   3.52619   3.53773
 Alpha virt. eigenvalues --    3.54392   3.58036   3.58676   3.59320   3.61870
 Alpha virt. eigenvalues --    3.62685   3.65110   3.66435   3.66650   3.67087
 Alpha virt. eigenvalues --    3.68578   3.69271   3.70147   3.73865   3.74117
 Alpha virt. eigenvalues --    3.77645   3.79058   3.80499   3.80923   3.83879
 Alpha virt. eigenvalues --    3.86424   3.86484   3.88626   3.89126   3.91129
 Alpha virt. eigenvalues --    3.91465   3.92175   3.93566   3.93824   3.96261
 Alpha virt. eigenvalues --    3.98241   3.98533   3.99239   4.00017   4.00760
 Alpha virt. eigenvalues --    4.01501   4.04273   4.05529   4.11513   4.19884
 Alpha virt. eigenvalues --    4.21983   4.29790   4.34790   4.45226   4.56603
 Alpha virt. eigenvalues --    4.59163   4.64644   4.71413   4.74434   4.86529
 Alpha virt. eigenvalues --    4.89558   4.91039   4.91314   4.91445   4.93573
 Alpha virt. eigenvalues --    4.95016   4.95253   4.96516   4.97569   4.99746
 Alpha virt. eigenvalues --    5.00638   5.01147   5.01424   5.06255   5.06334
 Alpha virt. eigenvalues --    5.07584   5.08545   5.09291   5.11215   5.11786
 Alpha virt. eigenvalues --    5.12614   5.14216   5.16447   5.18007   5.18337
 Alpha virt. eigenvalues --    5.19894   5.20709   5.27554   5.30803   5.31767
 Alpha virt. eigenvalues --    5.34716   5.36577   5.37235   5.39495   5.43526
 Alpha virt. eigenvalues --    5.46751   5.47601   5.53328   5.54604   5.56376
 Alpha virt. eigenvalues --    5.58026   5.68167   5.69597   5.70100   5.74916
 Alpha virt. eigenvalues --    5.81108   5.89201   5.93459   6.02803   6.14077
 Alpha virt. eigenvalues --    6.23777   6.83878   6.85642   6.92821   6.98920
 Alpha virt. eigenvalues --    7.06186   7.07480   7.27945   7.29606   7.33607
 Alpha virt. eigenvalues --    7.54570  23.87600  23.91780  24.01149  24.04524
 Alpha virt. eigenvalues --   24.13082  24.13379  24.17409  24.20079  24.24192
 Alpha virt. eigenvalues --   24.28012  35.62766  35.65087  35.67988  35.69454
 Alpha virt. eigenvalues --   35.72933  35.77506  35.88091  50.07252  50.11657
          Condensed to atoms (all electrons):
               1          2          3          4          5          6
     1  N    6.542800   0.360925  -0.060330   0.007349  -0.064766   0.007542
     2  C    0.360925   5.031265   0.413213   0.461179  -0.235889  -0.060305
     3  H   -0.060330   0.413213   0.548617  -0.058752   0.038046   0.002370
     4  N    0.007349   0.461179  -0.058752   6.867550   0.207967  -0.215661
     5  C   -0.064766  -0.235889   0.038046   0.207967   6.167600   0.156203
     6  C    0.007542  -0.060305   0.002370  -0.215661   0.156203   6.010075
     7  N   -0.006147  -0.005657   0.000035  -0.001893  -0.008892   0.281074
     8  H    0.000216   0.000742  -0.000007   0.000426   0.022654  -0.064177
     9  H    0.000026  -0.000685  -0.000014   0.007423  -0.007717  -0.027240
    10  N    0.000946  -0.010520   0.000373   0.022398  -0.084922   0.155667
    11  C   -0.027292  -0.030540   0.000056  -0.018175   0.097394  -0.149086
    12  H   -0.000475   0.000978   0.000000   0.000587  -0.003978   0.007767
    13  N   -0.046633  -0.011784   0.000849   0.006103   0.052646   0.034003
    14  C    0.250777  -0.053988   0.003417   0.165779  -0.642205  -0.522549
    15  N   -0.000004  -0.000020   0.000000   0.000010  -0.001808   0.003067
    16  C   -0.000002  -0.000079   0.000000  -0.000023  -0.005854   0.009241
    17  H   -0.000000  -0.000000   0.000000  -0.000000  -0.000005   0.000132
    18  C    0.000516   0.001871  -0.000003  -0.000181   0.161646  -0.333838
    19  C    0.000003   0.000034  -0.000000   0.000036   0.006574  -0.016997
    20  H   -0.000000  -0.000000   0.000000   0.000000  -0.000002   0.000102
    21  H    0.000000  -0.000001  -0.000000  -0.000001  -0.000128   0.000215
    22  H   -0.000000  -0.000000   0.000000   0.000000  -0.000010   0.000143
    23  C    0.001684   0.001405  -0.000026   0.002043  -0.114517   0.221702
    24  O   -0.000191  -0.000449   0.000001  -0.000223   0.030710  -0.055054
    25  N   -0.001086  -0.001288   0.000005   0.000612  -0.020505   0.082124
    26  H    0.000212  -0.000432  -0.000000  -0.000266  -0.000580  -0.003090
    27  C   -0.000094   0.000279  -0.000000  -0.000169   0.022309  -0.040906
    28  O   -0.000016  -0.000073   0.000000   0.000005  -0.007305   0.016440
    29  H    0.373375  -0.037102  -0.000539  -0.005028   0.055383   0.007012
    30  H    0.000000   0.000000   0.000000   0.000000  -0.000018  -0.000166
               7          8          9         10         11         12
     1  N   -0.006147   0.000216   0.000026   0.000946  -0.027292  -0.000475
     2  C   -0.005657   0.000742  -0.000685  -0.010520  -0.030540   0.000978
     3  H    0.000035  -0.000007  -0.000014   0.000373   0.000056   0.000000
     4  N   -0.001893   0.000426   0.007423   0.022398  -0.018175   0.000587
     5  C   -0.008892   0.022654  -0.007717  -0.084922   0.097394  -0.003978
     6  C    0.281074  -0.064177  -0.027240   0.155667  -0.149086   0.007767
     7  N    6.814082   0.322263   0.369981  -0.085330   0.006951  -0.001077
     8  H    0.322263   0.290346  -0.013649   0.019781   0.002497  -0.000096
     9  H    0.369981  -0.013649   0.401395   0.011649  -0.000997   0.000026
    10  N   -0.085330   0.019781   0.011649   7.188797   0.443369  -0.065605
    11  C    0.006951   0.002497  -0.000997   0.443369   4.904462   0.382188
    12  H   -0.001077  -0.000096   0.000026  -0.065605   0.382188   0.517176
    13  N    0.005862   0.000274  -0.000259  -0.010768   0.421946  -0.057925
    14  C    0.001438   0.000480  -0.000886   0.013293  -0.308966   0.065848
    15  N    0.000728  -0.000359   0.000010   0.001141  -0.003546   0.000186
    16  C    0.009212  -0.001951  -0.000278  -0.011284  -0.015075   0.000163
    17  H   -0.000032   0.000000   0.000000  -0.000131   0.000046   0.000000
    18  C   -0.019049   0.021504   0.001704  -0.020488   0.048120   0.000928
    19  C   -0.006571  -0.001193   0.000502   0.000118   0.002887   0.000098
    20  H   -0.000060   0.000064  -0.000000  -0.000026  -0.000021   0.000000
    21  H    0.000262  -0.000415  -0.000006   0.000089  -0.000007  -0.000000
    22  H   -0.000023   0.000022  -0.000000  -0.000039  -0.000028   0.000000
    23  C    0.034417  -0.010874  -0.001861   0.090697  -0.039598  -0.000863
    24  O   -0.028764   0.003711   0.006303  -0.049568   0.016623   0.000318
    25  N   -0.012084  -0.006659   0.000469  -0.097135  -0.000551   0.007446
    26  H   -0.004819   0.001985   0.000063  -0.040421   0.017449   0.002379
    27  C   -0.003632   0.001257  -0.000033  -0.015114   0.011056  -0.008367
    28  O   -0.000074  -0.000108   0.000001  -0.025346  -0.007567   0.004033
    29  H    0.000103  -0.000004  -0.000010  -0.000656   0.005670  -0.000028
    30  H    0.000019  -0.000000   0.000000   0.000150   0.000089  -0.000007
              13         14         15         16         17         18
     1  N   -0.046633   0.250777  -0.000004  -0.000002  -0.000000   0.000516
     2  C   -0.011784  -0.053988  -0.000020  -0.000079  -0.000000   0.001871
     3  H    0.000849   0.003417   0.000000   0.000000   0.000000  -0.000003
     4  N    0.006103   0.165779   0.000010  -0.000023  -0.000000  -0.000181
     5  C    0.052646  -0.642205  -0.001808  -0.005854  -0.000005   0.161646
     6  C    0.034003  -0.522549   0.003067   0.009241   0.000132  -0.333838
     7  N    0.005862   0.001438   0.000728   0.009212  -0.000032  -0.019049
     8  H    0.000274   0.000480  -0.000359  -0.001951   0.000000   0.021504
     9  H   -0.000259  -0.000886   0.000010  -0.000278   0.000000   0.001704
    10  N   -0.010768   0.013293   0.001141  -0.011284  -0.000131  -0.020488
    11  C    0.421946  -0.308966  -0.003546  -0.015075   0.000046   0.048120
    12  H   -0.057925   0.065848   0.000186   0.000163   0.000000   0.000928
    13  N    6.808495   0.214081  -0.000440  -0.000834   0.000000  -0.000538
    14  C    0.214081   6.854832  -0.001551  -0.004544  -0.000002  -0.001778
    15  N   -0.000440  -0.001551   6.472429   0.227523  -0.047337  -0.044835
    16  C   -0.000834  -0.004544   0.227523   6.427498   0.334769  -0.269782
    17  H    0.000000  -0.000002  -0.047337   0.334769   0.558448   0.016834
    18  C   -0.000538  -0.001778  -0.044835  -0.269782   0.016834   9.296115
    19  C   -0.000154  -0.000781  -0.011876  -0.134140  -0.004570   0.690683
    20  H   -0.000000  -0.000000   0.000535  -0.026930   0.001993  -0.042139
    21  H    0.000001   0.000019   0.000306   0.005412  -0.000044  -0.073094
    22  H   -0.000000   0.000001   0.000477  -0.016500   0.001915  -0.049810
    23  C   -0.000464   0.003286  -0.006085   0.061678   0.015647  -4.785083
    24  O   -0.000377  -0.002849   0.003981  -0.051965  -0.001086   0.001708
    25  N   -0.000127  -0.006989   0.082850  -0.008027   0.000254   0.267956
    26  H    0.000328  -0.003329  -0.004243  -0.007802   0.000209   0.014825
    27  C    0.001054  -0.005339   0.361410  -0.283534   0.016414   0.414621
    28  O    0.001770   0.001136  -0.005789   0.046567  -0.000201  -0.027315
    29  H    0.012566  -0.089016   0.000000   0.000000   0.000000  -0.000003
    30  H   -0.000001   0.000009   0.378224  -0.067771  -0.008917   0.010593
              19         20         21         22         23         24
     1  N    0.000003  -0.000000   0.000000  -0.000000   0.001684  -0.000191
     2  C    0.000034  -0.000000  -0.000001  -0.000000   0.001405  -0.000449
     3  H   -0.000000   0.000000  -0.000000   0.000000  -0.000026   0.000001
     4  N    0.000036   0.000000  -0.000001   0.000000   0.002043  -0.000223
     5  C    0.006574  -0.000002  -0.000128  -0.000010  -0.114517   0.030710
     6  C   -0.016997   0.000102   0.000215   0.000143   0.221702  -0.055054
     7  N   -0.006571  -0.000060   0.000262  -0.000023   0.034417  -0.028764
     8  H   -0.001193   0.000064  -0.000415   0.000022  -0.010874   0.003711
     9  H    0.000502  -0.000000  -0.000006  -0.000000  -0.001861   0.006303
    10  N    0.000118  -0.000026   0.000089  -0.000039   0.090697  -0.049568
    11  C    0.002887  -0.000021  -0.000007  -0.000028  -0.039598   0.016623
    12  H    0.000098   0.000000  -0.000000   0.000000  -0.000863   0.000318
    13  N   -0.000154  -0.000000   0.000001  -0.000000  -0.000464  -0.000377
    14  C   -0.000781  -0.000000   0.000019   0.000001   0.003286  -0.002849
    15  N   -0.011876   0.000535   0.000306   0.000477  -0.006085   0.003981
    16  C   -0.134140  -0.026930   0.005412  -0.016500   0.061678  -0.051965
    17  H   -0.004570   0.001993  -0.000044   0.001915   0.015647  -0.001086
    18  C    0.690683  -0.042139  -0.073094  -0.049810  -4.785083   0.001708
    19  C    5.575236   0.396530   0.430261   0.381558  -0.755682  -0.036294
    20  H    0.396530   0.579149  -0.022491  -0.038826   0.024665   0.001691
    21  H    0.430261  -0.022491   0.504330  -0.021978   0.024403   0.001037
    22  H    0.381558  -0.038826  -0.021978   0.578924   0.036315   0.001033
    23  C   -0.755682   0.024665   0.024403   0.036315  11.437814   0.261299
    24  O   -0.036294   0.001691   0.001037   0.001033   0.261299   8.427695
    25  N    0.015675  -0.000124  -0.003523   0.000056  -0.092410  -0.001793
    26  H    0.000054   0.000015  -0.000063   0.000015  -0.064095   0.019850
    27  C   -0.050037   0.000152  -0.000092   0.000062  -0.489607   0.027692
    28  O    0.002191  -0.000018  -0.000003  -0.000015   0.048941   0.002196
    29  H   -0.000000   0.000000  -0.000000   0.000000  -0.000012   0.000000
    30  H    0.003177   0.000004   0.000015   0.000010   0.011775   0.000101
              25         26         27         28         29         30
     1  N   -0.001086   0.000212  -0.000094  -0.000016   0.373375   0.000000
     2  C   -0.001288  -0.000432   0.000279  -0.000073  -0.037102   0.000000
     3  H    0.000005  -0.000000  -0.000000   0.000000  -0.000539   0.000000
     4  N    0.000612  -0.000266  -0.000169   0.000005  -0.005028   0.000000
     5  C   -0.020505  -0.000580   0.022309  -0.007305   0.055383  -0.000018
     6  C    0.082124  -0.003090  -0.040906   0.016440   0.007012  -0.000166
     7  N   -0.012084  -0.004819  -0.003632  -0.000074   0.000103   0.000019
     8  H   -0.006659   0.001985   0.001257  -0.000108  -0.000004  -0.000000
     9  H    0.000469   0.000063  -0.000033   0.000001  -0.000010   0.000000
    10  N   -0.097135  -0.040421  -0.015114  -0.025346  -0.000656   0.000150
    11  C   -0.000551   0.017449   0.011056  -0.007567   0.005670   0.000089
    12  H    0.007446   0.002379  -0.008367   0.004033  -0.000028  -0.000007
    13  N   -0.000127   0.000328   0.001054   0.001770   0.012566  -0.000001
    14  C   -0.006989  -0.003329  -0.005339   0.001136  -0.089016   0.000009
    15  N    0.082850  -0.004243   0.361410  -0.005789   0.000000   0.378224
    16  C   -0.008027  -0.007802  -0.283534   0.046567   0.000000  -0.067771
    17  H    0.000254   0.000209   0.016414  -0.000201   0.000000  -0.008917
    18  C    0.267956   0.014825   0.414621  -0.027315  -0.000003   0.010593
    19  C    0.015675   0.000054  -0.050037   0.002191  -0.000000   0.003177
    20  H   -0.000124   0.000015   0.000152  -0.000018   0.000000   0.000004
    21  H   -0.003523  -0.000063  -0.000092  -0.000003  -0.000000   0.000015
    22  H    0.000056   0.000015   0.000062  -0.000015   0.000000   0.000010
    23  C   -0.092410  -0.064095  -0.489607   0.048941  -0.000012   0.011775
    24  O   -0.001793   0.019850   0.027692   0.002196   0.000000   0.000101
    25  N    6.863468   0.288421   0.364893  -0.021633   0.000007  -0.001941
    26  H    0.288421   0.336232  -0.023217   0.025013  -0.000001  -0.000382
    27  C    0.364893  -0.023217   4.704801   0.252349   0.000006  -0.034876
    28  O   -0.021633   0.025013   0.252349   8.177683   0.000000   0.011289
    29  H    0.000007  -0.000001   0.000006   0.000000   0.413101  -0.000000
    30  H   -0.001941  -0.000382  -0.034876   0.011289  -0.000000   0.410507
 Mulliken charges:
               1
     1  N   -0.339334
     2  C    0.176921
     3  H    0.112689
     4  N   -0.449093
     5  C    0.179970
     6  C    0.494191
     7  N   -0.662325
     8  H    0.411270
     9  H    0.254082
    10  N   -0.431115
    11  C    0.240644
    12  H    0.148299
    13  N   -0.429674
    14  C    0.070375
    15  N   -0.404985
    16  C   -0.215688
    17  H    0.115661
    18  C    0.718313
    19  C   -0.487324
    20  H    0.125737
    21  H    0.155493
    22  H    0.126697
    23  C    0.083404
    24  O   -0.577337
    25  N   -0.698362
    26  H    0.445693
    27  C    0.776662
    28  O   -0.494154
    29  H    0.265175
    30  H    0.288115
 Sum of Mulliken charges =  -0.00000
 Mulliken charges with hydrogens summed into heavy atoms:
               1
     1  N   -0.074159
     2  C    0.289610
     4  N   -0.449093
     5  C    0.179970
     6  C    0.494191
     7  N    0.003027
    10  N   -0.431115
    11  C    0.388943
    13  N   -0.429674
    14  C    0.070375
    15  N   -0.116869
    16  C   -0.100026
    18  C    0.718313
    19  C   -0.079398
    23  C    0.083404
    24  O   -0.577337
    25  N   -0.252670
    27  C    0.776662
    28  O   -0.494154
 Electronic spatial extent (au):  <R**2>=           6364.9747
 Charge=              0.0000 electrons
 Dipole moment (field-independent basis, Debye):
    X=             -1.9504    Y=             -0.9716    Z=             -0.2418  Tot=              2.1924
 Quadrupole moment (field-independent basis, Debye-Ang):
   XX=            -52.6419   YY=           -122.7126   ZZ=           -111.9795
   XY=              1.6671   XZ=             -0.8539   YZ=             -0.0092
 Traceless Quadrupole moment (field-independent basis, Debye-Ang):
   XX=             43.1362   YY=            -26.9346   ZZ=            -16.2015
   XY=              1.6671   XZ=             -0.8539   YZ=             -0.0092
 Octapole moment (field-independent basis, Debye-Ang**2):
  XXX=              5.1364  YYY=            -39.3190  ZZZ=             -0.0762  XYY=            -12.8003
  XXY=             64.4100  XXZ=             -5.1888  XZZ=             -7.0799  YZZ=              2.2153
  YYZ=             -1.2700  XYZ=             -3.2874
 Hexadecapole moment (field-independent basis, Debye-Ang**3):
 XXXX=          -4590.5905 YYYY=          -1614.1322 ZZZZ=           -123.6085 XXXY=             -6.8783
 XXXZ=            -16.7373 YYYX=             -5.9540 YYYZ=              3.5620 ZZZX=             -0.3199
 ZZZY=             -1.2154 XXYY=          -1407.4426 XXZZ=          -1223.8749 YYZZ=           -280.4474
 XXYZ=            -17.1045 YYXZ=             -4.5756 ZZXY=              1.0991
 N-N= 1.384795269111D+03 E-N=-4.922605825925D+03  KE= 9.187364625048D+02
 Calling FoFJK, ICntrl=      2127 FMM=F ISym2X=0 I1Cent= 0 IOpClX= 0 NMat=1 NMatS=1 NMatT=0.
 ***** Axes restored to original set *****
 -------------------------------------------------------------------
 Center     Atomic                   Forces (Hartrees/Bohr)
 Number     Number              X              Y              Z
 -------------------------------------------------------------------
      1        7          -0.016595370   -0.000037293    0.006311933
      2        6          -0.010736879    0.002230944    0.000531088
      3        1          -0.002040168   -0.001887056   -0.002639035
      4        7          -0.001055276    0.003367893   -0.007001998
      5        6          -0.020261023    0.004368412   -0.004865003
      6        6          -0.007382736    0.003687015   -0.018568456
      7        7          -0.021910508   -0.000794866    0.014613636
      8        1           0.008758220    0.001078209   -0.003696203
      9        1           0.002199700   -0.000986106    0.005048782
     10        7           0.005927101   -0.001666429    0.005974650
     11        6           0.008834872   -0.004064728    0.022599566
     12        1           0.007681202    0.000280226   -0.012584977
     13        7          -0.016049844    0.001476946    0.000014843
     14        6           0.033630694   -0.011537761    0.026041015
     15        7           0.026805538    0.002911900   -0.044088949
     16        6          -0.023797267    0.000456971    0.002783538
     17        1           0.008151682   -0.000238778    0.004533074
     18        6          -0.009369091    0.006243070   -0.021579428
     19        6           0.001559425   -0.000741209    0.000667087
     20        1          -0.001756249    0.001270891   -0.004832403
     21        1           0.001713093    0.000037159   -0.002030648
     22        1          -0.001842079    0.000875296   -0.004713865
     23        6           0.010185843   -0.004015067    0.018206619
     24        8           0.007565133    0.001394900   -0.017287704
     25        7           0.000434156   -0.000891132    0.007298549
     26        1           0.004409753    0.001472728   -0.019675986
     27        6          -0.000462787   -0.003920960    0.025733284
     28        8           0.002838101   -0.000034781   -0.002230465
     29        1           0.012662506    0.003520670   -0.006657783
     30        1          -0.010097742   -0.003857063    0.032095236
 -------------------------------------------------------------------
 Cartesian Forces:  Max     0.044088949 RMS     0.011837037

 GradGradGradGradGradGradGradGradGradGradGradGradGradGradGradGradGradGrad
 Berny optimization.
 FormGI is forming the generalized inverse of G from B-inverse, IUseBI=4.
 Internal  Forces:  Max     0.031638350 RMS     0.006957537
 Search for a local minimum.
 Step number   1 out of a maximum of  172
 All quantities printed in internal units (Hartrees-Bohrs-Radians)
 Mixed Optimization -- RFO/linear search
 Second derivative matrix not updated -- first step.
 ITU=  0
     Eigenvalues ---    0.00230   0.00766   0.00883   0.01340   0.01599
     Eigenvalues ---    0.01649   0.01715   0.01909   0.01973   0.02012
     Eigenvalues ---    0.02030   0.02087   0.02150   0.02206   0.02241
     Eigenvalues ---    0.02274   0.02325   0.02367   0.02389   0.02448
     Eigenvalues ---    0.02509   0.02548   0.02592   0.02658   0.02937
     Eigenvalues ---    0.05856   0.06841   0.07531   0.07531   0.09070
     Eigenvalues ---    0.10778   0.15237   0.15946   0.15964   0.15981
     Eigenvalues ---    0.15984   0.16000   0.16000   0.16000   0.16000
     Eigenvalues ---    0.16000   0.20437   0.21950   0.22360   0.22715
     Eigenvalues ---    0.22844   0.23375   0.24422   0.24591   0.24750
     Eigenvalues ---    0.25000   0.25000   0.25000   0.32377   0.33859
     Eigenvalues ---    0.34813   0.34813   0.34813   0.35994   0.35994
     Eigenvalues ---    0.35994   0.38326   0.41528   0.43678   0.44144
     Eigenvalues ---    0.44189   0.44637   0.44859   0.45300   0.45973
     Eigenvalues ---    0.47557   0.49483   0.49721   0.50336   0.50585
     Eigenvalues ---    0.52208   0.55389   0.55828   0.56422   0.57400
     Eigenvalues ---    0.60725   0.64260   0.88810   0.95383
 RFO step:  Lambda=-3.21069107D-02 EMin= 2.30000000D-03
 Linear search not attempted -- first point.
 Maximum step size (   0.300) exceeded in Quadratic search.
    -- Step size scaled by   0.743
 Iteration  1 RMS(Cart)=  0.05614684 RMS(Int)=  0.00160130
 Iteration  2 RMS(Cart)=  0.00227099 RMS(Int)=  0.00016830
 Iteration  3 RMS(Cart)=  0.00000190 RMS(Int)=  0.00016829
 Iteration  4 RMS(Cart)=  0.00000000 RMS(Int)=  0.00016829
 Variable       Old X    -DE/DX   Delta X   Delta X   Delta X     New X
                                 (Linear)    (Quad)   (Total)
    R1        2.58892   0.01333   0.00000   0.01797   0.01794   2.60687
    R2        2.57861   0.00791   0.00000   0.01115   0.01119   2.58980
    R3        1.92140  -0.00826   0.00000  -0.01276  -0.01276   1.90863
    R4        2.04091   0.00036   0.00000   0.00067   0.00067   2.04158
    R5        2.45664   0.00408   0.00000   0.00377   0.00372   2.46036
    R6        2.62672   0.00192   0.00000   0.00266   0.00266   2.62938
    R7        2.64562   0.00947   0.00000   0.01417   0.01417   2.65978
    R8        2.57628   0.02174   0.00000   0.02996   0.02999   2.60628
    R9        2.53223  -0.00380   0.00000  -0.00353  -0.00361   2.52863
   R10        2.53223   0.01307   0.00000   0.01469   0.01479   2.54702
   R11        1.90862   0.02606   0.00000   0.04184   0.04168   1.95031
   R12        1.90862  -0.00328   0.00000  -0.00495  -0.00495   1.90368
   R13        2.99318   0.01720   0.00000   0.11047   0.11036   3.10354
   R14        2.51334   0.01412   0.00000   0.01649   0.01650   2.52984
   R15        3.05645   0.01067   0.00000   0.05634   0.05648   3.11293
   R16        2.04090   0.00485   0.00000   0.00919   0.00919   2.05010
   R17        2.49444   0.01148   0.00000   0.01323   0.01323   2.50767
   R18        2.55113  -0.00195   0.00000  -0.00201  -0.00202   2.54911
   R19        2.58893   0.01218   0.00000   0.01808   0.01808   2.60700
   R20        2.58927   0.00995   0.00000   0.01400   0.01393   2.60320
   R21        1.92929  -0.01115   0.00000  -0.01747  -0.01747   1.91183
   R22        2.04091   0.00172   0.00000   0.00327   0.00327   2.04417
   R23        2.53223   0.00895   0.00000   0.01201   0.01206   2.54430
   R24        2.83459   0.01046   0.00000   0.02182   0.02182   2.85641
   R25        2.72121   0.01293   0.00000   0.02212   0.02219   2.74339
   R26        2.05980   0.00162   0.00000   0.00317   0.00317   2.06297
   R27        2.05980  -0.00174   0.00000  -0.00339  -0.00339   2.05641
   R28        2.05980   0.00146   0.00000   0.00286   0.00286   2.06266
   R29        2.32436   0.00540   0.00000   0.00492   0.00482   2.32918
   R30        2.60782   0.00590   0.00000   0.00579   0.00584   2.61366
   R31        2.05980  -0.00567   0.00000  -0.01430  -0.01415   2.04565
   R32        2.60782  -0.00114   0.00000  -0.00280  -0.00286   2.60496
   R33        2.30547  -0.00119   0.00000  -0.00090  -0.00090   2.30457
    A1        1.83304   0.00628   0.00000   0.01902   0.01901   1.85205
    A2        2.11590   0.00759   0.00000   0.03402   0.03415   2.15006
    A3        2.30617  -0.01386   0.00000  -0.05254  -0.05263   2.25355
    A4        2.09440   0.00381   0.00000   0.01501   0.01508   2.10948
    A5        1.98846  -0.00168   0.00000  -0.00705  -0.00717   1.98129
    A6        2.19899  -0.00210   0.00000  -0.00797  -0.00792   2.19107
    A7        1.81514   0.00042   0.00000  -0.00163  -0.00178   1.81336
    A8        2.31117  -0.00315   0.00000  -0.00782  -0.00782   2.30335
    A9        1.91905   0.00632   0.00000   0.01777   0.01776   1.93681
   A10        2.05297  -0.00317   0.00000  -0.00995  -0.00994   2.04303
   A11        2.15548  -0.00022   0.00000   0.00453   0.00451   2.15999
   A12        2.04954  -0.00121   0.00000  -0.00253  -0.00249   2.04705
   A13        2.07816   0.00143   0.00000  -0.00200  -0.00202   2.07614
   A14        2.09440  -0.00134   0.00000  -0.00702  -0.00727   2.08712
   A15        2.09440  -0.00367   0.00000  -0.01333  -0.01327   2.08113
   A16        2.09439   0.00501   0.00000   0.02035   0.02040   2.11480
   A17        2.07345   0.00336   0.00000   0.01425   0.01420   2.08765
   A18        2.32062  -0.00717   0.00000  -0.04357  -0.04340   2.27723
   A19        1.88833   0.00381   0.00000   0.02943   0.02931   1.91765
   A20        2.09440  -0.01152   0.00000  -0.04610  -0.04612   2.04828
   A21        2.25444  -0.00537   0.00000  -0.01763  -0.01760   2.23685
   A22        1.93435   0.01689   0.00000   0.06373   0.06371   1.99806
   A23        1.93383   0.00363   0.00000   0.00944   0.00945   1.94328
   A24        1.86910  -0.01133   0.00000  -0.02812  -0.02810   1.84100
   A25        2.21195   0.00856   0.00000   0.02171   0.02167   2.23362
   A26        2.20214   0.00277   0.00000   0.00642   0.00637   2.20851
   A27        2.13295   0.00158   0.00000   0.00493   0.00488   2.13784
   A28        1.87366   0.03006   0.00000   0.11677   0.11679   1.99045
   A29        2.27657  -0.03164   0.00000  -0.12170  -0.12167   2.15489
   A30        2.09440  -0.01315   0.00000  -0.04801  -0.04809   2.04631
   A31        2.11569   0.00808   0.00000   0.02589   0.02594   2.14163
   A32        2.07216   0.00512   0.00000   0.02270   0.02264   2.09480
   A33        2.12285   0.00691   0.00000   0.01881   0.01874   2.14159
   A34        2.10801  -0.01740   0.00000  -0.04707  -0.04692   2.06109
   A35        2.05233   0.01049   0.00000   0.02825   0.02818   2.08051
   A36        1.91114   0.00603   0.00000   0.02388   0.02369   1.93482
   A37        1.91114   0.00049   0.00000   0.00079   0.00076   1.91190
   A38        1.91114   0.00581   0.00000   0.02295   0.02276   1.93390
   A39        1.91013  -0.00368   0.00000  -0.01522  -0.01525   1.89488
   A40        1.91013  -0.00503   0.00000  -0.01728  -0.01761   1.89252
   A41        1.91013  -0.00363   0.00000  -0.01518  -0.01521   1.89492
   A42        2.18777  -0.00714   0.00000  -0.01071  -0.01073   2.17704
   A43        1.99090   0.01058   0.00000   0.02648   0.02659   2.01748
   A44        2.10451  -0.00344   0.00000  -0.01577  -0.01586   2.08866
   A45        2.39076  -0.00600   0.00000  -0.03201  -0.03245   2.35831
   A46        2.03802   0.00095   0.00000  -0.01360  -0.01340   2.02463
   A47        2.20714   0.00289   0.00000   0.00932   0.00917   2.21631
   A48        2.03802  -0.00384   0.00000   0.00428   0.00422   2.04224
   A49        2.01168  -0.00573   0.00000  -0.01955  -0.01966   1.99202
   A50        2.14744  -0.00106   0.00000  -0.00056  -0.00051   2.14693
   A51        2.12407   0.00680   0.00000   0.02012   0.02017   2.14424
   A52        2.92372   0.00244   0.00000   0.03161   0.03132   2.95504
   A53        2.88814   0.01326   0.00000   0.08538   0.08572   2.97386
   A54        3.26281  -0.00228   0.00000  -0.04684  -0.04719   3.21562
   A55        3.14149   0.00128   0.00000   0.02395   0.02355   3.16504
    D1       -3.08924  -0.00219   0.00000  -0.02286  -0.02287  -3.11211
    D2       -0.00000  -0.00184   0.00000  -0.02324  -0.02338  -0.02338
    D3        0.27591  -0.00005   0.00000  -0.01645  -0.01671   0.25920
    D4       -2.91804   0.00030   0.00000  -0.01684  -0.01722  -2.93526
    D5        0.00000   0.00143   0.00000   0.01897   0.01887   0.01887
    D6       -3.14159   0.00045   0.00000   0.00861   0.00858  -3.13301
    D7        2.88310   0.00347   0.00000   0.02954   0.02921   2.91231
    D8       -0.25849   0.00249   0.00000   0.01919   0.01892  -0.23957
    D9       -0.00000   0.00140   0.00000   0.01688   0.01674   0.01674
   D10        3.08555   0.00198   0.00000   0.01728   0.01701   3.10256
   D11       -3.14159  -0.00025   0.00000  -0.00346  -0.00344   3.13815
   D12        0.00000  -0.00042   0.00000  -0.00389  -0.00390  -0.00390
   D13        0.00000  -0.00017   0.00000   0.00138   0.00150   0.00151
   D14       -3.14159  -0.00008   0.00000   0.00145   0.00152  -3.14007
   D15        3.14159   0.00000   0.00000   0.00184   0.00198  -3.13961
   D16       -0.00000   0.00009   0.00000   0.00191   0.00200   0.00200
   D17       -0.00000  -0.00067   0.00000  -0.00993  -0.00982  -0.00983
   D18        3.14159   0.00030   0.00000   0.00034   0.00027  -3.14133
   D19        3.14159  -0.00081   0.00000  -0.01029  -0.01020   3.13139
   D20        0.00000   0.00017   0.00000  -0.00002  -0.00011  -0.00011
   D21       -3.14159  -0.00099   0.00000  -0.01480  -0.01507   3.12652
   D22        0.00000   0.00007   0.00000   0.00281   0.00275   0.00275
   D23       -0.00000  -0.00108   0.00000  -0.01486  -0.01509  -0.01509
   D24        3.14159  -0.00002   0.00000   0.00275   0.00273  -3.13886
   D25       -0.00000  -0.00019   0.00000  -0.00206  -0.00211  -0.00211
   D26       -3.09360  -0.00054   0.00000  -0.00668  -0.00680  -3.10040
   D27       -3.14159  -0.00010   0.00000  -0.00200  -0.00210   3.13950
   D28        0.04799  -0.00045   0.00000  -0.00662  -0.00678   0.04121
   D29        0.12626  -0.00027   0.00000  -0.00341  -0.00385   0.12241
   D30       -3.10315   0.00016   0.00000   0.01073   0.01066  -3.09249
   D31       -3.14159   0.00011   0.00000   0.00028   0.00020  -3.14139
   D32        0.00000   0.00005   0.00000   0.00032   0.00029   0.00029
   D33       -0.03696   0.00009   0.00000   0.00198   0.00214  -0.03482
   D34        3.10463   0.00003   0.00000   0.00202   0.00223   3.10686
   D35        0.01995   0.00019   0.00000  -0.00269  -0.00304   0.01691
   D36       -3.11231   0.00064   0.00000   0.01118   0.01065  -3.10166
   D37       -3.08041  -0.00052   0.00000  -0.01611  -0.01619  -3.09660
   D38        0.07053  -0.00007   0.00000  -0.00224  -0.00251   0.06802
   D39        0.00000   0.00018   0.00000   0.00148   0.00152   0.00152
   D40        3.14159   0.00012   0.00000   0.00151   0.00161  -3.13998
   D41       -3.14159   0.00088   0.00000   0.01069   0.01077  -3.13081
   D42       -0.00000  -0.00029   0.00000  -0.00157  -0.00156  -0.00156
   D43       -3.09447  -0.00109   0.00000  -0.01170  -0.01142  -3.10589
   D44        0.00000   0.00028   0.00000   0.00362   0.00353   0.00353
   D45        0.05093  -0.00101   0.00000  -0.01200  -0.01176   0.03917
   D46       -3.13779   0.00036   0.00000   0.00332   0.00319  -3.13459
   D47       -0.00000  -0.00018   0.00000  -0.00212  -0.00203  -0.00203
   D48        3.14159  -0.00019   0.00000  -0.00281  -0.00266   3.13893
   D49        3.13682  -0.00011   0.00000  -0.00108  -0.00105   3.13577
   D50       -0.00477  -0.00012   0.00000  -0.00176  -0.00168  -0.00645
   D51       -3.14159  -0.00012   0.00000  -0.00186  -0.00184   3.13975
   D52        0.00000  -0.00010   0.00000  -0.00126  -0.00128  -0.00128
   D53       -0.04654   0.00076   0.00000   0.01139   0.01167  -0.03487
   D54        3.09506   0.00077   0.00000   0.01199   0.01222   3.10728
   D55        1.04720   0.00053   0.00000   0.00373   0.00385   1.05104
   D56       -3.14159   0.00002   0.00000   0.00022   0.00021  -3.14138
   D57       -1.04720  -0.00056   0.00000  -0.00382  -0.00395  -1.05114
   D58       -2.09439   0.00051   0.00000   0.00315   0.00328  -2.09111
   D59        0.00000   0.00000   0.00000  -0.00036  -0.00035  -0.00035
   D60        2.09440  -0.00058   0.00000  -0.00440  -0.00451   2.08989
   D61       -3.14159  -0.00014   0.00000  -0.00095  -0.00070   3.14089
   D62       -0.00000  -0.00015   0.00000  -0.00219  -0.00204  -0.00204
   D63        0.00000  -0.00012   0.00000  -0.00038  -0.00017  -0.00017
   D64        3.14159  -0.00014   0.00000  -0.00162  -0.00150   3.14009
   D65        2.99294   0.00115   0.00000   0.01468   0.01403   3.00697
   D66       -0.14865   0.00116   0.00000   0.01600   0.01541  -0.13324
   D67       -3.14159   0.00053   0.00000   0.00864   0.00833  -3.13326
   D68       -0.00000   0.00026   0.00000   0.00382   0.00366   0.00366
   D69       -0.00000   0.00052   0.00000   0.00746   0.00707   0.00707
   D70        3.14159   0.00025   0.00000   0.00264   0.00239  -3.13920
   D71        0.00000  -0.00011   0.00000  -0.00176  -0.00165  -0.00165
   D72       -3.14159  -0.00010   0.00000  -0.00109  -0.00102   3.14057
   D73        3.14159  -0.00037   0.00000  -0.00658  -0.00636   3.13523
   D74       -0.00000  -0.00037   0.00000  -0.00590  -0.00574  -0.00574
         Item               Value     Threshold  Converged?
 Maximum Force            0.031638     0.000450     NO 
 RMS     Force            0.006958     0.000300     NO 
 Maximum Displacement     0.280378     0.001800     NO 
 RMS     Displacement     0.056211     0.001200     NO 
 Predicted change in Energy=-1.654212D-02
 GradGradGradGradGradGradGradGradGradGradGradGradGradGradGradGradGradGrad

                          Input orientation:                          
 ---------------------------------------------------------------------
 Center     Atomic      Atomic             Coordinates (Angstroms)
 Number     Number       Type             X           Y           Z
 ---------------------------------------------------------------------
      1          7           0       -3.503979    2.672828    3.056496
      2          6           0       -4.639586    2.919864    2.313279
      3          1           0       -5.600560    3.038747    2.792415
      4          7           0       -4.408263    3.049714    1.038624
      5          6           0       -3.035005    2.855685    0.926708
      6          6           0       -2.170552    2.864508   -0.184008
      7          7           0       -2.575820    3.085746   -1.439915
      8          1           0       -1.883485    3.090846   -2.205283
      9          1           0       -3.551806    3.259990   -1.618551
     10          7           0       -0.862952    2.635162    0.048838
     11          6           0       -0.442648    2.414637    1.300603
     12          1           0        0.617179    2.234332    1.446163
     13          7           0       -1.163405    2.385797    2.414430
     14          6           0       -2.468303    2.615024    2.160838
[...]
 Alpha virt. eigenvalues --    2.81624   2.82042   2.82784   2.84178   2.84294
 Alpha virt. eigenvalues --    2.84832   2.85441   2.86132   2.87912   2.90160
 Alpha virt. eigenvalues --    2.94134   2.96461   2.97461   2.98915   3.01651
 Alpha virt. eigenvalues --    3.06486   3.07758   3.12636   3.14494   3.15372
 Alpha virt. eigenvalues --    3.17122   3.18180   3.18202   3.24048   3.26607
 Alpha virt. eigenvalues --    3.27868   3.28270   3.30592   3.30755   3.31881
 Alpha virt. eigenvalues --    3.31977   3.34162   3.35433   3.35990   3.37327
 Alpha virt. eigenvalues --    3.38749   3.39280   3.39708   3.41464   3.41535
 Alpha virt. eigenvalues --    3.42016   3.44036   3.45225   3.45979   3.46240
 Alpha virt. eigenvalues --    3.47371   3.47634   3.49010   3.49123   3.52384
 Alpha virt. eigenvalues --    3.54586   3.56799   3.59378   3.60045   3.60543
 Alpha virt. eigenvalues --    3.61183   3.61631   3.64221   3.64598   3.66420
 Alpha virt. eigenvalues --    3.67018   3.68003   3.70162   3.73530   3.73827
 Alpha virt. eigenvalues --    3.76171   3.78610   3.80088   3.81106   3.82166
 Alpha virt. eigenvalues --    3.84810   3.85082   3.85977   3.88049   3.88378
 Alpha virt. eigenvalues --    3.90054   3.90835   3.92385   3.93970   3.95822
 Alpha virt. eigenvalues --    3.97387   3.98248   3.98309   3.98532   3.99523
 Alpha virt. eigenvalues --    4.00296   4.03856   4.05304   4.11695   4.16581
 Alpha virt. eigenvalues --    4.20984   4.25550   4.34284   4.41696   4.55119
 Alpha virt. eigenvalues --    4.59061   4.62751   4.71345   4.74704   4.84509
 Alpha virt. eigenvalues --    4.86438   4.89369   4.89682   4.91126   4.92848
 Alpha virt. eigenvalues --    4.94267   4.95660   4.96048   4.97142   4.97994
 Alpha virt. eigenvalues --    4.98204   4.99105   5.01184   5.03642   5.05543
 Alpha virt. eigenvalues --    5.05737   5.07359   5.08104   5.10344   5.10749
 Alpha virt. eigenvalues --    5.11444   5.11721   5.14648   5.15804   5.18000
 Alpha virt. eigenvalues --    5.19097   5.19415   5.26243   5.26836   5.31440
 Alpha virt. eigenvalues --    5.31952   5.36344   5.37022   5.39381   5.40947
 Alpha virt. eigenvalues --    5.43591   5.46224   5.50744   5.52698   5.54689
 Alpha virt. eigenvalues --    5.58134   5.64613   5.69548   5.70168   5.72783
 Alpha virt. eigenvalues --    5.79032   5.86616   5.87766   5.93762   6.12575
 Alpha virt. eigenvalues --    6.22152   6.82599   6.84431   6.91787   6.97156
 Alpha virt. eigenvalues --    7.05004   7.06777   7.27427   7.28377   7.32321
 Alpha virt. eigenvalues --    7.33701  23.85941  23.90916  24.01164  24.02759
 Alpha virt. eigenvalues --   24.10585  24.11462  24.14278  24.16497  24.20632
 Alpha virt. eigenvalues --   24.25148  35.62560  35.65054  35.66289  35.70240
 Alpha virt. eigenvalues --   35.71392  35.76043  35.86094  50.06580  50.09411
          Condensed to atoms (all electrons):
               1          2          3          4          5          6
     1  N    6.540370   0.357004  -0.056005   0.007153  -0.050076   0.020040
     2  C    0.357004   4.978777   0.416730   0.460860  -0.228702  -0.061738
     3  H   -0.056005   0.416730   0.542131  -0.058099   0.037068   0.001238
     4  N    0.007153   0.460860  -0.058099   6.861003   0.195948  -0.178429
     5  C   -0.050076  -0.228702   0.037068   0.195948   5.958958   0.254284
     6  C    0.020040  -0.061738   0.001238  -0.178429   0.254284   5.756217
     7  N   -0.004622  -0.003073   0.000048  -0.002936  -0.032485   0.315247
     8  H    0.000255   0.000584  -0.000005  -0.000215   0.028081  -0.074242
     9  H   -0.000248  -0.001141  -0.000016   0.008851  -0.012802  -0.020626
    10  N    0.002935  -0.010225   0.000383   0.018550  -0.077813   0.190831
    11  C   -0.032892  -0.028290  -0.000036  -0.015881   0.066387  -0.136853
    12  H   -0.000241   0.001219  -0.000000   0.000606  -0.002286   0.004153
    13  N   -0.054546  -0.002884   0.000409   0.007132   0.049744   0.025431
    14  C    0.255653  -0.024057  -0.000267   0.150510  -0.456559  -0.532486
    15  N   -0.000005  -0.000023   0.000000   0.000005  -0.001595   0.003492
    16  C    0.000011  -0.000034   0.000000  -0.000008  -0.002347  -0.003479
    17  H   -0.000000  -0.000000   0.000000  -0.000000   0.000000   0.000102
    18  C    0.000146   0.001029  -0.000001  -0.000411   0.111885  -0.208471
    19  C   -0.000003   0.000008  -0.000000  -0.000005   0.004497  -0.008251
    20  H   -0.000000  -0.000000   0.000000   0.000000  -0.000012   0.000076
    21  H    0.000000   0.000000  -0.000000  -0.000000   0.000021  -0.000042
    22  H    0.000000   0.000000  -0.000000  -0.000000   0.000021  -0.000041
    23  C    0.000690   0.000438  -0.000011   0.000939  -0.084237   0.139642
    24  O   -0.000059  -0.000074   0.000000  -0.000187   0.028077  -0.035800
    25  N   -0.000570  -0.000729   0.000002   0.000535  -0.018406   0.069585
    26  H    0.000095  -0.000291   0.000000  -0.000323   0.006176  -0.018745
    27  C   -0.000148   0.000259  -0.000000  -0.000081   0.019108  -0.036229
    28  O   -0.000021  -0.000051   0.000000   0.000006  -0.005693   0.013875
    29  H    0.374760  -0.032561  -0.000651  -0.003344   0.063561   0.006373
    30  H    0.000000   0.000000   0.000000   0.000000  -0.000012  -0.000126
               7          8          9         10         11         12
     1  N   -0.004622   0.000255  -0.000248   0.002935  -0.032892  -0.000241
     2  C   -0.003073   0.000584  -0.001141  -0.010225  -0.028290   0.001219
     3  H    0.000048  -0.000005  -0.000016   0.000383  -0.000036  -0.000000
     4  N   -0.002936  -0.000215   0.008851   0.018550  -0.015881   0.000606
     5  C   -0.032485   0.028081  -0.012802  -0.077813   0.066387  -0.002286
     6  C    0.315247  -0.074242  -0.020626   0.190831  -0.136853   0.004153
     7  N    6.761804   0.312493   0.370657  -0.094670   0.005575  -0.000880
     8  H    0.312493   0.316210  -0.008460   0.018479   0.007259  -0.000084
     9  H    0.370657  -0.008460   0.392529   0.011015  -0.001930   0.000028
    10  N   -0.094670   0.018479   0.011015   7.072681   0.513009  -0.056577
    11  C    0.005575   0.007259  -0.001930   0.513009   4.800296   0.379899
    12  H   -0.000880  -0.000084   0.000028  -0.056577   0.379899   0.515446
    13  N    0.006855  -0.000262  -0.000244  -0.000022   0.428036  -0.054927
    14  C   -0.004057   0.000381   0.000446  -0.005437  -0.227151   0.062841
    15  N   -0.000043  -0.000147   0.000003  -0.000758  -0.003806   0.000343
    16  C    0.009559  -0.003071  -0.000234  -0.000516  -0.010374   0.000143
    17  H   -0.000020   0.000004   0.000000  -0.000092   0.000007   0.000000
    18  C   -0.023675   0.027626   0.000537  -0.024579   0.025971   0.000442
    19  C   -0.006696   0.002558   0.000261  -0.002684   0.001458   0.000065
    20  H    0.000000   0.000003  -0.000000  -0.000015  -0.000011   0.000000
    21  H   -0.000014  -0.000011  -0.000000   0.000013   0.000003   0.000000
    22  H   -0.000013  -0.000011  -0.000000   0.000013   0.000003   0.000000
    23  C    0.027714  -0.025306  -0.000095   0.058050  -0.015698  -0.000598
    24  O   -0.017219   0.037213   0.001832  -0.034128   0.003329   0.000110
    25  N   -0.005204  -0.004708   0.000070  -0.047735  -0.007558   0.006551
    26  H   -0.007475   0.007091   0.000162  -0.010286   0.009350  -0.000833
    27  C   -0.003404   0.003157  -0.000023  -0.006550   0.010192  -0.007060
    28  O    0.000272   0.000006   0.000002  -0.017468  -0.011144   0.003847
    29  H    0.000130  -0.000004  -0.000013  -0.000549   0.002928  -0.000030
    30  H    0.000009   0.000000   0.000000   0.000091   0.000145  -0.000006
              13         14         15         16         17         18
     1  N   -0.054546   0.255653  -0.000005   0.000011  -0.000000   0.000146
     2  C   -0.002884  -0.024057  -0.000023  -0.000034  -0.000000   0.001029
     3  H    0.000409  -0.000267   0.000000   0.000000   0.000000  -0.000001
     4  N    0.007132   0.150510   0.000005  -0.000008  -0.000000  -0.000411
     5  C    0.049744  -0.456559  -0.001595  -0.002347   0.000000   0.111885
     6  C    0.025431  -0.532486   0.003492  -0.003479   0.000102  -0.208471
     7  N    0.006855  -0.004057  -0.000043   0.009559  -0.000020  -0.023675
     8  H   -0.000262   0.000381  -0.000147  -0.003071   0.000004   0.027626
     9  H   -0.000244   0.000446   0.000003  -0.000234   0.000000   0.000537
    10  N   -0.000022  -0.005437  -0.000758  -0.000516  -0.000092  -0.024579
    11  C    0.428036  -0.227151  -0.003806  -0.010374   0.000007   0.025971
    12  H   -0.054927   0.062841   0.000343   0.000143   0.000000   0.000442
    13  N    6.774167   0.213692  -0.000364  -0.000375  -0.000000  -0.000593
    14  C    0.213692   6.561175  -0.001468  -0.003330  -0.000001   0.003136
    15  N   -0.000364  -0.001468   6.544485   0.165991  -0.044264  -0.017677
    16  C   -0.000375  -0.003330   0.165991   7.267298   0.333255  -0.421001
    17  H   -0.000000  -0.000001  -0.044264   0.333255   0.562870   0.020678
    18  C   -0.000593   0.003136  -0.017677  -0.421001   0.020678   9.237568
    19  C   -0.000093  -0.000358  -0.013161  -0.290326   0.012864   0.749391
    20  H   -0.000000   0.000000   0.000660  -0.057921   0.004960  -0.103711
    21  H    0.000000   0.000001   0.000592   0.010285   0.000091   0.009991
    22  H    0.000000   0.000001   0.000588   0.010251   0.000091   0.009746
    23  C    0.000682  -0.001430   0.018183  -0.371407  -0.008555  -4.580891
    24  O   -0.000310   0.000036   0.001309  -0.036504  -0.000721  -0.085069
    25  N   -0.000075  -0.002662   0.064680   0.037825  -0.001289   0.178948
    26  H   -0.000503  -0.002947   0.001582  -0.015879   0.000237   0.060903
    27  C   -0.000126  -0.003465   0.364681  -0.313962   0.017293   0.377445
    28  O    0.001383   0.000929  -0.008022   0.036132  -0.000320  -0.004100
    29  H    0.014228  -0.100069   0.000000   0.000000   0.000000  -0.000002
    30  H   -0.000001   0.000013   0.379403  -0.066174  -0.008666   0.024897
              19         20         21         22         23         24
     1  N   -0.000003  -0.000000   0.000000   0.000000   0.000690  -0.000059
     2  C    0.000008  -0.000000   0.000000   0.000000   0.000438  -0.000074
     3  H   -0.000000   0.000000  -0.000000  -0.000000  -0.000011   0.000000
     4  N   -0.000005   0.000000  -0.000000  -0.000000   0.000939  -0.000187
     5  C    0.004497  -0.000012   0.000021   0.000021  -0.084237   0.028077
     6  C   -0.008251   0.000076  -0.000042  -0.000041   0.139642  -0.035800
     7  N   -0.006696   0.000000  -0.000014  -0.000013   0.027714  -0.017219
     8  H    0.002558   0.000003  -0.000011  -0.000011  -0.025306   0.037213
     9  H    0.000261  -0.000000  -0.000000  -0.000000  -0.000095   0.001832
    10  N   -0.002684  -0.000015   0.000013   0.000013   0.058050  -0.034128
    11  C    0.001458  -0.000011   0.000003   0.000003  -0.015698   0.003329
    12  H    0.000065   0.000000   0.000000   0.000000  -0.000598   0.000110
    13  N   -0.000093  -0.000000   0.000000   0.000000   0.000682  -0.000310
    14  C   -0.000358   0.000000   0.000001   0.000001  -0.001430   0.000036
    15  N   -0.013161   0.000660   0.000592   0.000588   0.018183   0.001309
    16  C   -0.290326  -0.057921   0.010285   0.010251  -0.371407  -0.036504
    17  H    0.012864   0.004960   0.000091   0.000091  -0.008555  -0.000721
    18  C    0.749391  -0.103711   0.009991   0.009746  -4.580891  -0.085069
    19  C    5.721107   0.416624   0.390353   0.390453  -0.786517  -0.056845
    20  H    0.416624   0.574628  -0.025019  -0.025022   0.103523   0.000827
    21  H    0.390353  -0.025019   0.548608  -0.036578  -0.045672   0.002526
    22  H    0.390453  -0.025022  -0.036578   0.548605  -0.045488   0.002523
    23  C   -0.786517   0.103523  -0.045672  -0.045488  11.458384   0.415932
    24  O   -0.056845   0.000827   0.002526   0.002523   0.415932   8.271105
    25  N    0.011394  -0.001293  -0.000332  -0.000332  -0.030428  -0.014754
    26  H    0.007545  -0.000002  -0.000002  -0.000003  -0.100815   0.022291
    27  C   -0.045114  -0.000254   0.000417   0.000417  -0.447190   0.032803
    28  O    0.003953  -0.000008  -0.000010  -0.000010   0.036137   0.001940
    29  H   -0.000000   0.000000   0.000000   0.000000  -0.000013   0.000000
    30  H    0.004381  -0.000056   0.000016   0.000016  -0.000940   0.000023
              25         26         27         28         29         30
     1  N   -0.000570   0.000095  -0.000148  -0.000021   0.374760   0.000000
     2  C   -0.000729  -0.000291   0.000259  -0.000051  -0.032561   0.000000
     3  H    0.000002   0.000000  -0.000000   0.000000  -0.000651   0.000000
     4  N    0.000535  -0.000323  -0.000081   0.000006  -0.003344   0.000000
     5  C   -0.018406   0.006176   0.019108  -0.005693   0.063561  -0.000012
     6  C    0.069585  -0.018745  -0.036229   0.013875   0.006373  -0.000126
     7  N   -0.005204  -0.007475  -0.003404   0.000272   0.000130   0.000009
     8  H   -0.004708   0.007091   0.003157   0.000006  -0.000004   0.000000
     9  H    0.000070   0.000162  -0.000023   0.000002  -0.000013   0.000000
    10  N   -0.047735  -0.010286  -0.006550  -0.017468  -0.000549   0.000091
    11  C   -0.007558   0.009350   0.010192  -0.011144   0.002928   0.000145
    12  H    0.006551  -0.000833  -0.007060   0.003847  -0.000030  -0.000006
    13  N   -0.000075  -0.000503  -0.000126   0.001383   0.014228  -0.000001
    14  C   -0.002662  -0.002947  -0.003465   0.000929  -0.100069   0.000013
    15  N    0.064680   0.001582   0.364681  -0.008022   0.000000   0.379403
    16  C    0.037825  -0.015879  -0.313962   0.036132   0.000000  -0.066174
    17  H   -0.001289   0.000237   0.017293  -0.000320   0.000000  -0.008666
    18  C    0.178948   0.060903   0.377445  -0.004100  -0.000002   0.024897
    19  C    0.011394   0.007545  -0.045114   0.003953  -0.000000   0.004381
    20  H   -0.001293  -0.000002  -0.000254  -0.000008   0.000000  -0.000056
    21  H   -0.000332  -0.000002   0.000417  -0.000010   0.000000   0.000016
    22  H   -0.000332  -0.000003   0.000417  -0.000010   0.000000   0.000016
    23  C   -0.030428  -0.100815  -0.447190   0.036137  -0.000013  -0.000940
    24  O   -0.014754   0.022291   0.032803   0.001940   0.000000   0.000023
    25  N    6.743210   0.288028   0.393264  -0.016631   0.000007  -0.001157
    26  H    0.288028   0.354964  -0.020237   0.016728  -0.000001  -0.000353
    27  C    0.393264  -0.020237   4.696027   0.258983   0.000005  -0.032851
    28  O   -0.016631   0.016728   0.258983   8.153695   0.000000   0.011642
    29  H    0.000007  -0.000001   0.000005   0.000000   0.406671  -0.000000
    30  H   -0.001157  -0.000353  -0.032851   0.011642  -0.000000   0.397703
 Mulliken charges:
               1
     1  N   -0.359676
     2  C    0.176964
     3  H    0.117083
     4  N   -0.452180
     5  C    0.149206
     6  C    0.514971
     7  N   -0.603878
     8  H    0.355127
     9  H    0.259439
    10  N   -0.495946
    11  C    0.237774
    12  H    0.147827
    13  N   -0.406432
    14  C    0.116930
    15  N   -0.454665
    16  C   -0.273808
    17  H    0.111474
    18  C    0.629840
    19  C   -0.506858
    20  H    0.112023
    21  H    0.144765
    22  H    0.144770
    23  C    0.284978
    24  O   -0.540206
    25  N   -0.640236
    26  H    0.403544
    27  C    0.742644
    28  O   -0.476051
    29  H    0.268574
    30  H    0.292003
 Sum of Mulliken charges =  -0.00000
 Mulliken charges with hydrogens summed into heavy atoms:
               1
     1  N   -0.091102
     2  C    0.294046
     4  N   -0.452180
     5  C    0.149206
     6  C    0.514971
     7  N    0.010688
    10  N   -0.495946
    11  C    0.385601
    13  N   -0.406432
    14  C    0.116930
    15  N   -0.162662
    16  C   -0.162334
    18  C    0.629840
    19  C   -0.105299
    23  C    0.284978
    24  O   -0.540206
    25  N   -0.236692
    27  C    0.742644
    28  O   -0.476051
 Electronic spatial extent (au):  <R**2>=           6726.1762
 Charge=              0.0000 electrons
 Dipole moment (field-independent basis, Debye):
    X=             -1.7837    Y=             -0.4470    Z=             -0.0048  Tot=              1.8389
 Quadrupole moment (field-independent basis, Debye-Ang):
   XX=            -54.1587   YY=           -120.5376   ZZ=           -112.4234
   XY=             -1.6085   XZ=              0.0064   YZ=              0.0025
 Traceless Quadrupole moment (field-independent basis, Debye-Ang):
   XX=             41.5479   YY=            -24.8310   ZZ=            -16.7168
   XY=             -1.6085   XZ=              0.0064   YZ=              0.0025
 Octapole moment (field-independent basis, Debye-Ang**2):
  XXX=             22.5331  YYY=            -27.5067  ZZZ=              0.0042  XYY=            -21.9168
  XXY=             61.7750  XXZ=             -0.0780  XZZ=             -6.3134  YZZ=              1.6780
  YYZ=             -0.0272  XYZ=              0.0185
 Hexadecapole moment (field-independent basis, Debye-Ang**3):
 XXXX=          -5082.6541 YYYY=          -1587.2669 ZZZZ=           -123.0537 XXXY=            -20.8100
 XXXZ=              0.0927 YYYX=            -40.0661 YYYZ=              0.0040 ZZZX=             -0.0135
 ZZZY=             -0.0011 XXYY=          -1450.2062 XXZZ=          -1323.6650 YYZZ=           -277.7888
 XXYZ=             -0.0781 YYXZ=              0.0391 ZZXY=              2.5720
 N-N= 1.362076989531D+03 E-N=-4.876651750924D+03  KE= 9.182719744754D+02
 Unable to Open any file for archive entry.
 1\1\GINC-AMD01N03\FOpt\RB3LYP\6-311+G(2d,p)\C10H11N7O2\HASHMIMU\09-Apr
 -2026\0\\# opt freq B3LYP/6-311+G(2d,p) scf=xqc geom=connectivity\\Opt
 imization of Adenine-Thymine\\0,1\N,-3.5638971558,2.6357151043,3.14404
 93841\C,-4.681918861,2.9623543498,2.4078678104\H,-5.6523947261,3.06560
 10311,2.8689680978\N,-4.4301747329,3.1242546683,1.1365133433\C,-3.0711
 207355,2.8920470872,1.0254839197\C,-2.1936824472,2.9110995969,-0.07722
 13307\N,-2.5946996845,3.1899472599,-1.3261178272\H,-1.9273089005,3.192
 7956839,-2.0971745898\H,-3.5656425788,3.3949498057,-1.4910773599\N,-0.
 8946203863,2.633028997,0.158478988\C,-0.4915280897,2.3537521665,1.4096
 929134\H,0.5675173569,2.1413669912,1.5144385248\N,-1.2268472135,2.3082
 513975,2.5145942833\C,-2.5104589677,2.586110235,2.2622388215\N,3.29317
 94203,2.3115983577,-2.5999004543\C,2.9409569698,2.5885874293,-3.898139
 3971\H,3.7526041298,2.555585476,-4.6143382388\C,1.675806574,2.88116929
 51,-4.2583467687\C,1.2603835485,3.1876903255,-5.6647616504\H,2.1133506
 26,3.1409731597,-6.3436640505\H,0.5011336881,2.4822221808,-6.010125511
 2\H,0.8154735788,4.1831436499,-5.7322643033\C,0.6600964072,2.897199612
 3,-3.2073805541\O,-0.5250851033,3.15058617,-3.4172709708\N,1.100739554
 7,2.606163332,-1.9243651529\H,0.3869394103,2.6131852088,-1.1616647749\
 C,2.390327741,2.3059489462,-1.5455436198\O,2.7258248703,2.0572341352,-
 0.4036579893\H,-3.5127165944,2.4639654763,4.1357205052\H,4.2461693614,
 2.094593351,-2.3524497877\\Version=ES64L-G16RevC.01\State=1-A\HF=-921.
 7680825\RMSD=5.935e-09\RMSF=6.562e-06\Dipole=0.3607374,0.0340295,-0.62
 62071\Quadrupole=6.400297,-12.7661486,6.3658516,0.5400204,-24.5261896,
 1.4515838\PG=C01 [X(C10H11N7O2)]\\@
 The archive entry for this job was punched.


      TO SUSPECT YOUR OWN MORTALITY IS TO KNOW THE BEGINNING OF TERROR.
      TO LEARN IRREFUTABLY THAT YOU ARE MORTAL IS TO KNOW THE END
      OF TERROR.

                                                  -- JESSICA
                                                     CHILDREN OF DUNE
                                                     BY FRANK HERBERT
 Job cpu time:       1 days  8 hours  7 minutes 32.9 seconds.
 Elapsed time:       0 days  2 hours 11 minutes 53.8 seconds.
 File lengths (MBytes):  RWF=    215 Int=      0 D2E=      0 Chk=     26 Scr=      2
 Normal termination of Gaussian 16 at Thu Apr  9 16:32:56 2026.