 Entering Gaussian System, Link 0=g16
 Initial command:
 /home/software/apps/gaussian/g16/l1.exe "/nfs/scratch/hashmimu/3105227/Gau-353712.inp" -scrdir="/nfs/scratch/hashmimu/3105227/"
 Entering Link 1 = /home/software/apps/gaussian/g16/l1.exe PID=    353714.
  
 Copyright (c) 1988-2019, Gaussian, Inc.  All Rights Reserved.
  
 This is part of the Gaussian(R) 16 program.  It is based on
 the Gaussian(R) 09 system (copyright 2009, Gaussian, Inc.),
 the Gaussian(R) 03 system (copyright 2003, Gaussian, Inc.),
 the Gaussian(R) 98 system (copyright 1998, Gaussian, Inc.),
 the Gaussian(R) 94 system (copyright 1995, Gaussian, Inc.),
 the Gaussian 92(TM) system (copyright 1992, Gaussian, Inc.),
 the Gaussian 90(TM) system (copyright 1990, Gaussian, Inc.),
 the Gaussian 88(TM) system (copyright 1988, Gaussian, Inc.),
 the Gaussian 86(TM) system (copyright 1986, Carnegie Mellon
 University), and the Gaussian 82(TM) system (copyright 1983,
 Carnegie Mellon University). Gaussian is a federally registered
 trademark of Gaussian, Inc.
  
 This software contains proprietary and confidential information,
 including trade secrets, belonging to Gaussian, Inc.
  
 This software is provided under written license and may be
 used, copied, transmitted, or stored only in accord with that
 written license.
  
 The following legend is applicable only to US Government
 contracts under FAR:
  
                    RESTRICTED RIGHTS LEGEND
  
 Use, reproduction and disclosure by the US Government is
 subject to restrictions as set forth in subparagraphs (a)
 and (c) of the Commercial Computer Software - Restricted
 Rights clause in FAR 52.227-19.
  
 Gaussian, Inc.
 340 Quinnipiac St., Bldg. 40, Wallingford CT 06492
  
  
 ---------------------------------------------------------------
 Warning -- This program may not be used in any manner that
 competes with the business of Gaussian, Inc. or will provide
 assistance to any competitor of Gaussian, Inc.  The licensee
 of this program is prohibited from giving any competitor of
 Gaussian, Inc. access to this program.  By using this program,
 the user acknowledges that Gaussian, Inc. is engaged in the
 business of creating and licensing software in the field of
 computational chemistry and represents and warrants to the
 licensee that it is not a competitor of Gaussian, Inc. and that
 it will not use this program in any manner prohibited above.
 ---------------------------------------------------------------
  

 Cite this work as:
 Gaussian 16, Revision C.01,
 M. J. Frisch, G. W. Trucks, H. B. Schlegel, G. E. Scuseria, 
 M. A. Robb, J. R. Cheeseman, G. Scalmani, V. Barone, 
 G. A. Petersson, H. Nakatsuji, X. Li, M. Caricato, A. V. Marenich, 
 J. Bloino, B. G. Janesko, R. Gomperts, B. Mennucci, H. P. Hratchian, 
 J. V. Ortiz, A. F. Izmaylov, J. L. Sonnenberg, D. Williams-Young, 
 F. Ding, F. Lipparini, F. Egidi, J. Goings, B. Peng, A. Petrone, 
 T. Henderson, D. Ranasinghe, V. G. Zakrzewski, J. Gao, N. Rega, 
 G. Zheng, W. Liang, M. Hada, M. Ehara, K. Toyota, R. Fukuda, 
 J. Hasegawa, M. Ishida, T. Nakajima, Y. Honda, O. Kitao, H. Nakai, 
 T. Vreven, K. Throssell, J. A. Montgomery, Jr., J. E. Peralta, 
 F. Ogliaro, M. J. Bearpark, J. J. Heyd, E. N. Brothers, K. N. Kudin, 
 V. N. Staroverov, T. A. Keith, R. Kobayashi, J. Normand, 
 K. Raghavachari, A. P. Rendell, J. C. Burant, S. S. Iyengar, 
 J. Tomasi, M. Cossi, J. M. Millam, M. Klene, C. Adamo, R. Cammi, 
 J. W. Ochterski, R. L. Martin, K. Morokuma, O. Farkas, 
 J. B. Foresman, and D. J. Fox, Gaussian, Inc., Wallingford CT, 2019.
 
 ******************************************
 Gaussian 16:  ES64L-G16RevC.01  3-Jul-2019
                 9-Apr-2026 
 ******************************************
 %NProcShared=16
 Will use up to   16 processors via shared memory.
 %mem=24GB
 %chk=G-C_opt.chk
 Default route: MaxDisk=2TB
 --------------------------------------------------------
 # opt freq B3LYP/6-311+G(2d,p) scf=xqc geom=connectivity
 --------------------------------------------------------
 1/18=20,19=15,26=3,38=1,57=2/1,3;
 2/9=110,12=2,17=6,18=5,40=1/2;
 3/5=4,6=6,7=112,11=2,25=1,30=1,71=1,74=-5/1,2,3;
 4//1;
 5/5=2,8=3,13=1,38=5/2,8;
 6/7=2,8=2,9=2,10=2,28=1/1;
 7//1,2,3,16;
 1/18=20,19=15,26=3/3(2);
 2/9=110/2;
 99//99;
 2/9=110/2;
 3/5=4,6=6,7=112,11=2,25=1,30=1,71=1,74=-5/1,2,3;
 4/5=5,16=3,69=1/1;
 5/5=2,8=3,13=1,38=5/2,8;
 7//1,2,3,16;
 1/18=20,19=15,26=3/3(-5);
 2/9=110/2;
 6/7=2,8=2,9=2,10=2,19=2,28=1/1;
 99/9=1/99;
 --------------------------------
 Optimization of Guanine-Cytosine
 --------------------------------
 Symbolic Z-matrix:
 Charge =  0 Multiplicity = 1
 N                    -1.40596   2.05363  -1.68993 
 C                    -2.38036   2.45163  -2.5429 
 H                    -3.32943   2.84238  -2.24043 
 N                    -2.00427   2.29371  -3.7881 
 C                    -0.65566   1.73995  -3.6735 
 C                     0.20508   1.38368  -4.63452 
 O                    -0.07618   1.49589  -5.85594 
 N                     1.49802   0.85372  -4.1793 
 H                     2.18967   0.56774  -4.8425 
 C                     1.74108   0.75749  -2.85111 
 N                     2.91453   0.27655  -2.42551 
 H                     3.60722  -0.00985  -3.08744 
 H                     3.09907   0.20342  -1.4454 
 N                     0.80784   1.14339  -1.94938 
 C                    -0.35975   1.62188  -2.39332 
 N                     5.40971  -0.61953  -6.37057 
 C                     5.24769  -0.58045  -7.69491 
 H                     6.03889  -0.89786  -8.34156 
 C                     4.07751  -0.13735  -8.21911 
 H                     3.9492   -0.10664  -9.28094 
 C                     3.03227   0.28174  -7.37771 
 N                     1.92309   0.70139  -7.89444 
 H                     1.17642   1.00064  -7.30036 
 H                     1.81232   0.72654  -8.88797 
 N                     3.17387   0.2507   -6.0449 
 C                     4.31523  -0.18088  -5.50001 
 O                     4.44925  -0.21045  -4.24911 
 H                    -1.49972   2.15453  -0.66646 
 H                     6.21498  -1.02858  -6.00462 
 
 Add virtual bond connecting atoms N25        and H9         Dist= 3.00D+00.
 Add virtual bond connecting atoms O27        and H12        Dist= 2.74D+00.

 GradGradGradGradGradGradGradGradGradGradGradGradGradGradGradGradGradGrad
 Berny optimization.
 Initialization pass.
                           ----------------------------
                           !    Initial Parameters    !
                           ! (Angstroms and Degrees)  !
 --------------------------                            --------------------------
 ! Name  Definition              Value          Derivative Info.                !
 --------------------------------------------------------------------------------
 ! R1    R(1,2)                  1.3548         estimate D2E/DX2                !
 ! R2    R(1,15)                 1.3326         estimate D2E/DX2                !
 ! R3    R(1,28)                 1.0327         estimate D2E/DX2                !
 ! R4    R(2,3)                  1.07           estimate D2E/DX2                !
 ! R5    R(2,4)                  1.3103         estimate D2E/DX2                !
 ! R6    R(4,5)                  1.4624         estimate D2E/DX2                !
 ! R7    R(5,6)                  1.3384         estimate D2E/DX2                !
 ! R8    R(5,15)                 1.3192         estimate D2E/DX2                !
 ! R9    R(6,7)                  1.2584         estimate D2E/DX2                !
 ! R10   R(6,8)                  1.4696         estimate D2E/DX2                !
 ! R11   R(8,9)                  1.0            estimate D2E/DX2                !
 ! R12   R(8,10)                 1.3537         estimate D2E/DX2                !
 ! R13   R(9,25)                 1.5859         estimate D2E/DX2                !
 ! R14   R(10,11)                1.3377         estimate D2E/DX2                !
 ! R15   R(10,14)                1.3539         estimate D2E/DX2                !
 ! R16   R(11,12)                1.0            estimate D2E/DX2                !
 ! R17   R(11,13)                1.0            estimate D2E/DX2                !
 ! R18   R(12,27)                1.4487         estimate D2E/DX2                !
 ! R19   R(14,15)                1.3376         estimate D2E/DX2                !
 ! R20   R(16,17)                1.3348         estimate D2E/DX2                !
 ! R21   R(16,26)                1.4657         estimate D2E/DX2                !
 ! R22   R(16,29)                0.9745         estimate D2E/DX2                !
 ! R23   R(17,18)                1.07           estimate D2E/DX2                !
 ! R24   R(17,19)                1.3566         estimate D2E/DX2                !
 ! R25   R(19,20)                1.07           estimate D2E/DX2                !
 ! R26   R(19,21)                1.4057         estimate D2E/DX2                !
 ! R27   R(21,22)                1.2936         estimate D2E/DX2                !
 ! R28   R(21,25)                1.3407         estimate D2E/DX2                !
 ! R29   R(22,23)                1.0            estimate D2E/DX2                !
 ! R30   R(22,24)                1.0            estimate D2E/DX2                !
 ! R31   R(25,26)                1.3364         estimate D2E/DX2                !
 ! R32   R(26,27)                1.2584         estimate D2E/DX2                !
 ! A1    A(2,1,15)             109.119          estimate D2E/DX2                !
 ! A2    A(2,1,28)             122.0036         estimate D2E/DX2                !
 ! A3    A(15,1,28)            128.7606         estimate D2E/DX2                !
 ! A4    A(1,2,3)              124.5583         estimate D2E/DX2                !
 ! A5    A(1,2,4)              110.8834         estimate D2E/DX2                !
 ! A6    A(3,2,4)              124.5583         estimate D2E/DX2                !
 ! A7    A(2,4,5)              103.6428         estimate D2E/DX2                !
 ! A8    A(4,5,6)              129.6135         estimate D2E/DX2                !
 ! A9    A(4,5,15)             108.469          estimate D2E/DX2                !
 ! A10   A(6,5,15)             121.9175         estimate D2E/DX2                !
 ! A11   A(5,6,7)              121.9683         estimate D2E/DX2                !
 ! A12   A(5,6,8)              116.0634         estimate D2E/DX2                !
 ! A13   A(7,6,8)              121.9683         estimate D2E/DX2                !
 ! A14   A(6,8,9)              120.4108         estimate D2E/DX2                !
 ! A15   A(6,8,10)             119.1784         estimate D2E/DX2                !
 ! A16   A(9,8,10)             120.4108         estimate D2E/DX2                !
 ! A17   A(8,10,11)            119.6857         estimate D2E/DX2                !
 ! A18   A(8,10,14)            120.6286         estimate D2E/DX2                !
 ! A19   A(11,10,14)           119.6857         estimate D2E/DX2                !
 ! A20   A(10,11,12)           120.0            estimate D2E/DX2                !
 ! A21   A(10,11,13)           120.0            estimate D2E/DX2                !
 ! A22   A(12,11,13)           120.0            estimate D2E/DX2                !
 ! A23   A(10,14,15)           118.8545         estimate D2E/DX2                !
 ! A24   A(1,15,5)             107.8857         estimate D2E/DX2                !
 ! A25   A(1,15,14)            128.7567         estimate D2E/DX2                !
 ! A26   A(5,15,14)            123.3575         estimate D2E/DX2                !
 ! A27   A(17,16,26)           119.335          estimate D2E/DX2                !
 ! A28   A(17,16,29)           119.0234         estimate D2E/DX2                !
 ! A29   A(26,16,29)           121.3074         estimate D2E/DX2                !
 ! A30   A(16,17,18)           120.0781         estimate D2E/DX2                !
 ! A31   A(16,17,19)           119.8439         estimate D2E/DX2                !
 ! A32   A(18,17,19)           120.0781         estimate D2E/DX2                !
 ! A33   A(17,19,20)           119.7528         estimate D2E/DX2                !
 ! A34   A(17,19,21)           120.4945         estimate D2E/DX2                !
 ! A35   A(20,19,21)           119.7528         estimate D2E/DX2                !
 ! A36   A(19,21,22)           119.6813         estimate D2E/DX2                !
 ! A37   A(19,21,25)           120.6374         estimate D2E/DX2                !
 ! A38   A(22,21,25)           119.6813         estimate D2E/DX2                !
 ! A39   A(21,22,23)           120.0            estimate D2E/DX2                !
 ! A40   A(21,22,24)           120.0            estimate D2E/DX2                !
 ! A41   A(23,22,24)           120.0            estimate D2E/DX2                !
 ! A42   A(9,25,21)            133.1245         estimate D2E/DX2                !
 ! A43   A(9,25,26)            106.5862         estimate D2E/DX2                !
 ! A44   A(21,25,26)           120.201          estimate D2E/DX2                !
 ! A45   A(16,26,25)           119.4882         estimate D2E/DX2                !
 ! A46   A(16,26,27)           120.2559         estimate D2E/DX2                !
 ! A47   A(25,26,27)           120.2559         estimate D2E/DX2                !
 ! A48   A(12,27,26)           137.0483         estimate D2E/DX2                !
 ! A49   L(8,9,25,12,-1)       187.8319         estimate D2E/DX2                !
 ! A50   L(11,12,27,7,-1)      167.8056         estimate D2E/DX2                !
 ! A51   L(8,9,25,12,-2)       183.0616         estimate D2E/DX2                !
 ! A52   L(11,12,27,7,-2)      174.556          estimate D2E/DX2                !
 ! D1    D(15,1,2,3)           179.9998         estimate D2E/DX2                !
 ! D2    D(15,1,2,4)             0.0            estimate D2E/DX2                !
 ! D3    D(28,1,2,3)            -3.608          estimate D2E/DX2                !
 ! D4    D(28,1,2,4)           176.3922         estimate D2E/DX2                !
 ! D5    D(2,1,15,5)             0.0            estimate D2E/DX2                !
 ! D6    D(2,1,15,14)         -179.9998         estimate D2E/DX2                !
 ! D7    D(28,1,15,5)         -176.076          estimate D2E/DX2                !
 ! D8    D(28,1,15,14)           3.9242         estimate D2E/DX2                !
 ! D9    D(1,2,4,5)              0.0            estimate D2E/DX2                !
 ! D10   D(3,2,4,5)           -179.9998         estimate D2E/DX2                !
 ! D11   D(2,4,5,6)            179.9997         estimate D2E/DX2                !
 ! D12   D(2,4,5,15)             0.0            estimate D2E/DX2                !
 ! D13   D(4,5,6,7)              0.0            estimate D2E/DX2                !
 ! D14   D(4,5,6,8)           -179.9998         estimate D2E/DX2                !
 ! D15   D(15,5,6,7)           179.9997         estimate D2E/DX2                !
 ! D16   D(15,5,6,8)             0.0            estimate D2E/DX2                !
 ! D17   D(4,5,15,1)             0.0001         estimate D2E/DX2                !
 ! D18   D(4,5,15,14)          179.9998         estimate D2E/DX2                !
 ! D19   D(6,5,15,1)          -179.9998         estimate D2E/DX2                !
 ! D20   D(6,5,15,14)            0.0            estimate D2E/DX2                !
 ! D21   D(5,6,8,9)            180.0            estimate D2E/DX2                !
 ! D22   D(5,6,8,10)             0.0            estimate D2E/DX2                !
 ! D23   D(7,6,8,9)              0.0002         estimate D2E/DX2                !
 ! D24   D(7,6,8,10)          -179.9998         estimate D2E/DX2                !
 ! D25   D(6,8,25,21)           -3.6817         estimate D2E/DX2                !
 ! D26   D(6,8,25,26)          178.2613         estimate D2E/DX2                !
 ! D27   D(10,8,25,21)         178.5245         estimate D2E/DX2                !
 ! D28   D(10,8,25,26)           0.4676         estimate D2E/DX2                !
 ! D29   D(6,8,10,11)         -179.9998         estimate D2E/DX2                !
 ! D30   D(6,8,10,14)            0.0001         estimate D2E/DX2                !
 ! D31   D(9,8,10,11)            0.0001         estimate D2E/DX2                !
 ! D32   D(9,8,10,14)         -179.9999         estimate D2E/DX2                !
 ! D33   D(8,10,11,12)          -0.0001         estimate D2E/DX2                !
 ! D34   D(8,10,11,13)         179.9998         estimate D2E/DX2                !
 ! D35   D(14,10,11,12)        180.0            estimate D2E/DX2                !
 ! D36   D(14,10,11,13)         -0.0001         estimate D2E/DX2                !
 ! D37   D(8,10,14,15)          -0.0001         estimate D2E/DX2                !
 ! D38   D(11,10,14,15)        179.9999         estimate D2E/DX2                !
 ! D39   D(10,11,27,26)         -5.5741         estimate D2E/DX2                !
 ! D40   D(13,11,27,26)        178.2407         estimate D2E/DX2                !
 ! D41   D(10,14,15,1)         179.9998         estimate D2E/DX2                !
 ! D42   D(10,14,15,5)           0.0            estimate D2E/DX2                !
 ! D43   D(26,16,17,18)       -179.9998         estimate D2E/DX2                !
 ! D44   D(26,16,17,19)          0.0            estimate D2E/DX2                !
 ! D45   D(29,16,17,18)         -6.5493         estimate D2E/DX2                !
 ! D46   D(29,16,17,19)        173.4505         estimate D2E/DX2                !
 ! D47   D(17,16,26,25)         -0.0001         estimate D2E/DX2                !
 ! D48   D(17,16,26,27)        179.9998         estimate D2E/DX2                !
 ! D49   D(29,16,26,25)       -173.2964         estimate D2E/DX2                !
 ! D50   D(29,16,26,27)          6.7035         estimate D2E/DX2                !
 ! D51   D(16,17,19,20)       -179.9999         estimate D2E/DX2                !
 ! D52   D(16,17,19,21)          0.0002         estimate D2E/DX2                !
 ! D53   D(18,17,19,20)         -0.0001         estimate D2E/DX2                !
 ! D54   D(18,17,19,21)        179.9999         estimate D2E/DX2                !
 ! D55   D(17,19,21,22)        179.9998         estimate D2E/DX2                !
 ! D56   D(17,19,21,25)         -0.0003         estimate D2E/DX2                !
 ! D57   D(20,19,21,22)         -0.0001         estimate D2E/DX2                !
 ! D58   D(20,19,21,25)        179.9998         estimate D2E/DX2                !
 ! D59   D(19,21,22,23)        179.9998         estimate D2E/DX2                !
 ! D60   D(19,21,22,24)         -0.0001         estimate D2E/DX2                !
 ! D61   D(25,21,22,23)         -0.0002         estimate D2E/DX2                !
 ! D62   D(25,21,22,24)        180.0            estimate D2E/DX2                !
 ! D63   D(19,21,25,9)        -176.0785         estimate D2E/DX2                !
 ! D64   D(19,21,25,26)          0.0002         estimate D2E/DX2                !
 ! D65   D(22,21,25,9)           3.9214         estimate D2E/DX2                !
 ! D66   D(22,21,25,26)       -179.9999         estimate D2E/DX2                !
 ! D67   D(9,25,26,16)         177.0147         estimate D2E/DX2                !
 ! D68   D(9,25,26,27)          -2.9852         estimate D2E/DX2                !
 ! D69   D(21,25,26,16)          0.0            estimate D2E/DX2                !
 ! D70   D(21,25,26,27)       -179.9999         estimate D2E/DX2                !
 ! D71   D(16,26,27,12)       -172.092          estimate D2E/DX2                !
 ! D72   D(25,26,27,12)          7.9079         estimate D2E/DX2                !
 --------------------------------------------------------------------------------
 Trust Radius=3.00D-01 FncErr=1.00D-07 GrdErr=1.00D-06 EigMax=2.50D+02 EigMin=1.00D-04
 Number of steps in this run=    166 maximum allowed number of steps=    174.
 GradGradGradGradGradGradGradGradGradGradGradGradGradGradGradGradGradGrad

                          Input orientation:                          
 ---------------------------------------------------------------------
 Center     Atomic      Atomic             Coordinates (Angstroms)
 Number     Number       Type             X           Y           Z
 ---------------------------------------------------------------------
      1          7           0       -1.405957    2.053630   -1.689932
      2          6           0       -2.380364    2.451631   -2.542905
      3          1           0       -3.329429    2.842376   -2.240427
      4          7           0       -2.004267    2.293708   -3.788103
      5          6           0       -0.655661    1.739949   -3.673504
      6          6           0        0.205082    1.383681   -4.634522
      7          8           0       -0.076183    1.495893   -5.855943
      8          7           0        1.498023    0.853720   -4.179296
      9          1           0        2.189674    0.567739   -4.842496
     10          6           0        1.741081    0.757494   -2.851113
     11          7           0        2.914533    0.276547   -2.425506
     12          1           0        3.607218   -0.009854   -3.087444
     13          1           0        3.099066    0.203417   -1.445404
     14          7           0        0.807838    1.143385   -1.949376
     15          6           0       -0.359751    1.621876   -2.393317
     16          7           0        5.409713   -0.619530   -6.370569
     17          6           0        5.247691   -0.580452   -7.694907
     18          1           0        6.038887   -0.897859   -8.341561
     19          6           0        4.077506   -0.137353   -8.219108
     20          1           0        3.949198   -0.106640   -9.280943
     21          6           0        3.032275    0.281736   -7.377713
     22          7           0        1.923091    0.701387   -7.894438
     23          1           0        1.176420    1.000639   -7.300358
     24          1           0        1.812320    0.726538   -8.887966
     25          7           0        3.173873    0.250704   -6.044901
     26          6           0        4.315227   -0.180882   -5.500005
     27          8           0        4.449252   -0.210447   -4.249112
     28          1           0       -1.499718    2.154528   -0.666459
     29          1           0        6.214985   -1.028583   -6.004620
 ---------------------------------------------------------------------
                    Distance matrix (angstroms):
                    1          2          3          4          5
     1  N    0.000000
     2  C    1.354783   0.000000
     3  H    2.150561   1.070000   0.000000
     4  N    2.194979   1.310308   2.110070   0.000000
     5  C    2.143804   2.181592   3.227707   1.462368   0.000000
     6  C    3.422702   3.492837   4.511347   2.534916   1.338417
     7  O    4.408516   4.147157   5.046641   2.937683   2.271211
     8  N    4.008717   4.502552   5.569404   3.806919   2.383187
     9  H    5.007503   5.451826   6.511930   4.656163   3.291891
    10  C    3.596131   4.466699   5.516317   4.155182   2.717705
    11  N    4.729242   5.725444   6.753133   5.488188   4.055285
    12  H    5.598475   6.496658   7.547829   6.106233   4.645149
    13  H    4.876301   6.023547   6.994406   5.991791   4.628535
    14  N    2.407642   3.496915   4.481993   3.551351   2.338875
    15  C    1.332557   2.189463   3.214341   2.258588   1.319236
    16  N    8.689505   9.206972  10.267204   8.373958   7.044860
    17  C    9.341795   9.691433  10.725395   8.724380   7.510360
    18  H   10.410626  10.757661  11.788916   9.778159   8.577048
    19  C    8.803346   8.979209   9.974272   7.907706   6.825661
    20  H    9.537709   9.592146  10.547226   8.448474   7.487188
    21  C    7.428887   7.574990   8.568539   6.503852   5.426640
    22  N    7.169868   7.086747   8.008786   5.900984   5.054192
    23  H    6.265328   6.114691   7.021223   4.911693   4.130032
    24  H    7.995634   7.798355   8.666264   6.559799   5.857350
    25  N    6.571996   6.925143   7.967668   6.006674   4.744123
    26  C    7.227838   7.778528   8.843399   6.999301   5.633421
    27  O    6.779300   7.526052   8.594325   6.937667   5.495044
    28  H    1.032700   2.094005   2.509652   3.165218   3.150656
    29  H    9.284143   9.898251  10.965824   9.138198   7.765606
                    6          7          8          9         10
     6  C    0.000000
     7  O    1.258400   0.000000
     8  N    1.469620   2.387813   0.000000
     9  H    2.155833   2.650028   1.000000   0.000000
    10  C    2.435560   3.588410   1.353664   2.050085   0.000000
    11  N    3.666964   4.711591   2.327104   2.540090   1.337700
    12  H    3.988724   4.847607   2.527173   2.328787   2.031536
    13  H    4.465270   5.586193   3.234254   3.535528   2.031537
    14  N    2.762439   4.020824   2.352192   3.257451   1.353878
    15  C    2.323526   3.476502   2.689072   3.689071   2.317376
    16  N    5.840795   5.902110   4.719477   3.756763   5.267031
    17  C    6.217047   6.003051   5.336326   4.336595   6.127703
    18  H    7.278794   7.021568   6.404055   5.404431   7.166334
    19  C    5.491672   5.050264   4.894490   3.932248   5.922415
    20  H    6.150503   5.522900   5.740849   4.821880   6.853118
    21  C    4.090525   3.667761   3.593183   2.686839   4.731135
    22  N    3.747550   2.963747   3.742482   3.066477   5.046920
    23  H    2.863023   1.975000   3.141025   2.693542   4.491519
    24  H    4.594218   3.653972   4.720861   4.066133   6.037353
    25  N    3.476568   3.485550   2.579260   1.585855   3.536949
    26  C    4.482210   4.714100   3.278920   2.347494   3.810959
    27  O    4.550029   5.096377   3.138006   2.462391   3.197733
    28  H    4.387035   5.421347   4.797768   5.793859   4.150566
    29  H    6.619298   6.780403   5.396721   4.483515   5.757646
                   11         12         13         14         15
    11  N    0.000000
    12  H    1.000000   0.000000
    13  H    1.000000   1.732051   0.000000
    14  N    2.327289   3.234454   2.527302   0.000000
    15  C    3.540040   4.345250   3.856680   1.337647   0.000000
    16  N    4.753146   3.794680   5.502143   6.620580   7.357251
    17  C    5.826204   4.923966   6.654872   7.462911   8.024992
    18  H    6.792681   5.857244   7.577093   8.508266   9.092482
    19  C    5.923651   5.154745   6.852484   7.186137   7.531532
    20  H    6.943658   6.203688   7.887619   8.073574   8.306275
    21  C    4.953610   4.338432   5.933202   5.929368   6.176246
    22  N    5.574287   5.142892   6.574263   6.064893   6.026691
    23  H    5.225852   4.967747   6.213905   5.365561   5.179267
    24  H    6.571207   6.116370   7.571070   7.023303   6.906518
    25  N    3.628766   3.000371   4.600348   4.813349   5.263143
    26  C    3.409359   2.520115   4.250474   5.163568   5.895496
    27  O    2.432707   1.448700   3.139278   4.514593   5.470639
    28  H    5.109469   6.051984   5.055928   2.827207   2.136652
    29  H    5.040476   4.043287   5.658023   7.099274   7.955727
                   16         17         18         19         20
    16  N    0.000000
    17  C    1.334784   0.000000
    18  H    2.087615   1.070000   0.000000
    19  C    2.329027   1.356635   2.107221   0.000000
    20  H    3.296428   2.103828   2.423895   1.070000   0.000000
    21  C    2.734745   2.398343   3.370484   1.405734   2.147992
    22  N    4.027845   3.568738   4.438162   2.334609   2.584650
    23  H    4.627118   4.385289   5.322779   3.248911   3.582887
    24  H    4.592431   3.864374   4.560821   2.514904   2.326986
    25  N    2.421228   2.777419   3.847356   2.386277   3.346759
    26  C    1.465671   2.418002   3.399926   2.729821   3.799339
    27  O    2.364405   3.556390   4.443828   3.988033   5.057683
    28  H    9.379366  10.119621  11.182791   9.664401  10.440925
    29  H    0.974529   1.998387   2.347210   3.204226   4.088773
                   21         22         23         24         25
    21  C    0.000000
    22  N    1.293600   0.000000
    23  H    1.991733   1.000000   0.000000
    24  H    1.991733   1.000000   1.732051   0.000000
    25  N    1.340672   2.277797   2.475559   3.187987   0.000000
    26  C    2.320726   3.497717   3.806490   4.308855   1.336363
    27  O    3.469613   4.527840   4.635543   5.417593   2.250357
    28  H    8.311874   8.128403   7.245812   8.977858   7.375272
    29  H    3.705667   4.998456   5.584247   5.547755   3.299478
                   26         27         28         29
    26  C    0.000000
    27  O    1.258400   0.000000
    28  H    7.913969   7.336127   0.000000
    29  H    2.140633   2.620871   9.906805   0.000000
 Stoichiometry    C9H10N8O2
 Framework group  C1[X(C9H10N8O2)]
 Deg. of freedom    81
 Full point group                 C1      NOp   1
 Largest Abelian subgroup         C1      NOp   1
 Largest concise Abelian subgroup C1      NOp   1
                         Standard orientation:                         
 ---------------------------------------------------------------------
 Center     Atomic      Atomic             Coordinates (Angstroms)
 Number     Number       Type             X           Y           Z
 ---------------------------------------------------------------------
      1          7           0        4.521121    0.457996    0.017634
      2          6           0        4.868325   -0.851473    0.030841
      3          1           0        5.875564   -1.212202    0.046469
      4          7           0        3.804794   -1.616802    0.021898
      5          6           0        2.694938   -0.664803    0.001015
      6          6           0        1.376021   -0.891884   -0.014843
      7          8           0        0.900490   -2.056976   -0.013418
      8          7           0        0.515869    0.299567   -0.034024
      9          1           0       -0.479580    0.205094   -0.046501
     10          6           0        1.087789    1.526480   -0.034592
     11          7           0        0.314481    2.617871   -0.051967
     12          1           0       -0.681126    2.525074   -0.064456
     13          1           0        0.732000    3.526539   -0.052464
     14          7           0        2.435010    1.659509   -0.017741
     15          6           0        3.192375    0.557056   -0.000501
     16          7           0       -4.151843    0.993761    0.029359
     17          6           0       -4.799315   -0.173245    0.006462
     18          1           0       -5.869121   -0.192957    0.001233
     19          6           0       -4.097799   -1.334303   -0.010170
     20          1           0       -4.618318   -2.268981   -0.028519
     21          6           0       -2.692169   -1.318619   -0.003475
     22          7           0       -2.039029   -2.435109   -0.019563
     23          1           0       -1.039055   -2.429514   -0.014899
     24          1           0       -2.534101   -3.303793   -0.036666
     25          7           0       -2.021970   -0.157710    0.019420
     26          6           0       -2.686210    1.001760    0.036193
     27          8           0       -2.058183    2.092031    0.057687
     28          1           0        5.224875    1.211436    0.077035
     29          1           0       -4.662358    1.819462   -0.056079
 ---------------------------------------------------------------------
 Rotational constants (GHZ):           0.8902689           0.2154024           0.1734643
 Standard basis: 6-311+G(2d,p) (5D, 7F)
 There are   611 symmetry adapted cartesian basis functions of A   symmetry.
 There are   573 symmetry adapted basis functions of A   symmetry.
   573 basis functions,   878 primitive gaussians,   611 cartesian basis functions
    68 alpha electrons       68 beta electrons
       nuclear repulsion energy      1415.5686122729 Hartrees.
 NAtoms=   29 NActive=   29 NUniq=   29 SFac= 1.00D+00 NAtFMM=   60 NAOKFM=F Big=F
 Integral buffers will be    131072 words long.
 Raffenetti 2 integral format.
 Two-electron integral symmetry is turned on.
 One-electron integrals computed using PRISM.
 NBasis=   573 RedAO= T EigKep=  2.77D-06  NBF=   573
 NBsUse=   572 1.00D-06 EigRej=  2.98D-07 NBFU=   572
 ExpMin= 4.38D-02 ExpMax= 8.59D+03 ExpMxC= 1.30D+03 IAcc=3 IRadAn=         5 AccDes= 0.00D+00
 Harris functional with IExCor=  402 and IRadAn=       5 diagonalized for initial guess.
 HarFok:  IExCor=  402 AccDes= 0.00D+00 IRadAn=         5 IDoV= 1 UseB2=F ITyADJ=14
 ICtDFT=  3500011 ScaDFX=  1.000000  1.000000  1.000000  1.000000
 FoFCou: FMM=F IPFlag=           0 FMFlag=      100000 FMFlg1=           0
         NFxFlg=           0 DoJE=T BraDBF=F KetDBF=T FulRan=T
         wScrn=  0.000000 ICntrl=       500 IOpCl=  0 I1Cent=   200000004 NGrid=           0
         NMat0=    1 NMatS0=      1 NMatT0=    0 NMatD0=    1 NMtDS0=    0 NMtDT0=    0
 Petite list used in FoFCou.
 Requested convergence on RMS density matrix=1.00D-08 within  32 cycles.
 Requested convergence on MAX density matrix=1.00D-06.
 Requested convergence on             energy=1.00D-06.
 No special actions if energy rises.
 SCF Done:  E(RB3LYP) =  -937.760870740     A.U. after   15 cycles
            NFock= 15  Conv=0.28D-08     -V/T= 2.0029
 QCSCF skips out because SCF is already converged.

 **********************************************************************

            Population analysis using the SCF Density.

 **********************************************************************

 Orbital symmetries:
       Occupied  (A) (A) (A) (A) (A) (A) (A) (A) (A) (A) (A) (A)
                 (A) (A) (A) (A) (A) (A) (A) (A) (A) (A) (A) (A)
                 (A) (A) (A) (A) (A) (A) (A) (A) (A) (A) (A) (A)
                 (A) (A) (A) (A) (A) (A) (A) (A) (A) (A) (A) (A)
                 (A) (A) (A) (A) (A) (A) (A) (A) (A) (A) (A) (A)
                 (A) (A) (A) (A) (A) (A) (A) (A)
       Virtual   (A) (A) (A) (A) (A) (A) (A) (A) (A) (A) (A) (A)
                 (A) (A) (A) (A) (A) (A) (A) (A) (A) (A) (A) (A)
                 (A) (A) (A) (A) (A) (A) (A) (A) (A) (A) (A) (A)
                 (A) (A) (A) (A) (A) (A) (A) (A) (A) (A) (A) (A)
                 (A) (A) (A) (A) (A) (A) (A) (A) (A) (A) (A) (A)
                 (A) (A) (A) (A) (A) (A) (A) (A) (A) (A) (A) (A)
                 (A) (A) (A) (A) (A) (A) (A) (A) (A) (A) (A) (A)
                 (A) (A) (A) (A) (A) (A) (A) (A) (A) (A) (A) (A)
                 (A) (A) (A) (A) (A) (A) (A) (A) (A) (A) (A) (A)
                 (A) (A) (A) (A) (A) (A) (A) (A) (A) (A) (A) (A)
                 (A) (A) (A) (A) (A) (A) (A) (A) (A) (A) (A) (A)
                 (A) (A) (A) (A) (A) (A) (A) (A) (A) (A) (A) (A)
                 (A) (A) (A) (A) (A) (A) (A) (A) (A) (A) (A) (A)
                 (A) (A) (A) (A) (A) (A) (A) (A) (A) (A) (A) (A)
                 (A) (A) (A) (A) (A) (A) (A) (A) (A) (A) (A) (A)
                 (A) (A) (A) (A) (A) (A) (A) (A) (A) (A) (A) (A)
                 (A) (A) (A) (A) (A) (A) (A) (A) (A) (A) (A) (A)
                 (A) (A) (A) (A) (A) (A) (A) (A) (A) (A) (A) (A)
                 (A) (A) (A) (A) (A) (A) (A) (A) (A) (A) (A) (A)
                 (A) (A) (A) (A) (A) (A) (A) (A) (A) (A) (A) (A)
                 (A) (A) (A) (A) (A) (A) (A) (A) (A) (A) (A) (A)
                 (A) (A) (A) (A) (A) (A) (A) (A) (A) (A) (A) (A)
                 (A) (A) (A) (A) (A) (A) (A) (A) (A) (A) (A) (A)
                 (A) (A) (A) (A) (A) (A) (A) (A) (A) (A) (A) (A)
                 (A) (A) (A) (A) (A) (A) (A) (A) (A) (A) (A) (A)
                 (A) (A) (A) (A) (A) (A) (A) (A) (A) (A) (A) (A)
                 (A) (A) (A) (A) (A) (A) (A) (A) (A) (A) (A) (A)
                 (A) (A) (A) (A) (A) (A) (A) (A) (A) (A) (A) (A)
                 (A) (A) (A) (A) (A) (A) (A) (A) (A) (A) (A) (A)
                 (A) (A) (A) (A) (A) (A) (A) (A) (A) (A) (A) (A)
                 (A) (A) (A) (A) (A) (A) (A) (A) (A) (A) (A) (A)
                 (A) (A) (A) (A) (A) (A) (A) (A) (A) (A) (A) (A)
                 (A) (A) (A) (A) (A) (A) (A) (A) (A) (A) (A) (A)
                 (A) (A) (A) (A) (A) (A) (A) (A) (A) (A) (A) (A)
                 (A) (A) (A) (A) (A) (A) (A) (A) (A) (A) (A) (A)
                 (A) (A) (A) (A) (A) (A) (A) (A) (A) (A) (A) (A)
                 (A) (A) (A) (A) (A) (A) (A) (A) (A) (A) (A) (A)
                 (A) (A) (A) (A) (A) (A) (A) (A) (A) (A) (A) (A)
                 (A) (A) (A) (A) (A) (A) (A) (A) (A) (A) (A) (A)
                 (A) (A) (A) (A) (A) (A) (A) (A) (A) (A) (A) (A)
                 (A) (A) (A) (A) (A) (A) (A) (A) (A) (A) (A) (A)
                 (A) (A) (A) (A) (A) (A) (A) (A) (A) (A) (A) (A)
 The electronic state is 1-A.
 Alpha  occ. eigenvalues --  -19.11447 -19.06428 -14.40416 -14.36050 -14.35585
 Alpha  occ. eigenvalues --  -14.32916 -14.32226 -14.29231 -14.28376 -14.27110
 Alpha  occ. eigenvalues --  -10.33681 -10.29525 -10.27281 -10.27027 -10.25197
 Alpha  occ. eigenvalues --  -10.21705 -10.21681 -10.20664 -10.15112  -1.07865
 Alpha  occ. eigenvalues --   -1.02879  -1.01684  -1.00301  -0.99435  -0.97080
 Alpha  occ. eigenvalues --   -0.92149  -0.88076  -0.86975  -0.84872  -0.81903
 Alpha  occ. eigenvalues --   -0.75176  -0.70757  -0.69477  -0.66824  -0.63127
 Alpha  occ. eigenvalues --   -0.62217  -0.60451  -0.59815  -0.58505  -0.56874
 Alpha  occ. eigenvalues --   -0.54448  -0.53264  -0.52548  -0.50870  -0.49286
 Alpha  occ. eigenvalues --   -0.48065  -0.47781  -0.46988  -0.45789  -0.45727
 Alpha  occ. eigenvalues --   -0.42143  -0.41713  -0.41493  -0.40841  -0.39688
 Alpha  occ. eigenvalues --   -0.39158  -0.36139  -0.31988  -0.30208  -0.29198
 Alpha  occ. eigenvalues --   -0.29039  -0.27982  -0.27349  -0.25986  -0.25176
 Alpha  occ. eigenvalues --   -0.24490  -0.23671  -0.18891
 Alpha virt. eigenvalues --   -0.07164  -0.03152  -0.02964  -0.00871  -0.00302
 Alpha virt. eigenvalues --    0.00538   0.00808   0.02432   0.02535   0.03310
 Alpha virt. eigenvalues --    0.03380   0.04034   0.04682   0.05631   0.05675
 Alpha virt. eigenvalues --    0.05956   0.06554   0.06698   0.07741   0.07862
 Alpha virt. eigenvalues --    0.08623   0.09231   0.10031   0.10166   0.10398
 Alpha virt. eigenvalues --    0.10516   0.11737   0.11795   0.12223   0.13067
 Alpha virt. eigenvalues --    0.13499   0.13773   0.14452   0.14725   0.15282
 Alpha virt. eigenvalues --    0.15545   0.15797   0.16262   0.16689   0.16956
 Alpha virt. eigenvalues --    0.17571   0.17694   0.18136   0.18572   0.18971
 Alpha virt. eigenvalues --    0.19126   0.19135   0.19753   0.20552   0.20593
 Alpha virt. eigenvalues --    0.20758   0.21072   0.21626   0.21792   0.22151
 Alpha virt. eigenvalues --    0.22532   0.22811   0.23180   0.23361   0.23858
 Alpha virt. eigenvalues --    0.24314   0.24515   0.24892   0.25299   0.26040
 Alpha virt. eigenvalues --    0.26283   0.26515   0.26970   0.27256   0.27813
 Alpha virt. eigenvalues --    0.28138   0.28506   0.28828   0.29109   0.29336
 Alpha virt. eigenvalues --    0.30096   0.30349   0.30953   0.31635   0.32053
 Alpha virt. eigenvalues --    0.32759   0.33227   0.34205   0.34673   0.34815
 Alpha virt. eigenvalues --    0.35497   0.35710   0.35868   0.36416   0.37207
 Alpha virt. eigenvalues --    0.38268   0.38681   0.39829   0.40519   0.41091
 Alpha virt. eigenvalues --    0.41250   0.42981   0.43791   0.44313   0.44807
 Alpha virt. eigenvalues --    0.45541   0.45853   0.46218   0.47062   0.47484
 Alpha virt. eigenvalues --    0.48418   0.49407   0.49973   0.50686   0.51901
 Alpha virt. eigenvalues --    0.52738   0.53067   0.53392   0.54833   0.55368
 Alpha virt. eigenvalues --    0.55724   0.56438   0.57202   0.58457   0.58733
 Alpha virt. eigenvalues --    0.58805   0.59015   0.59525   0.60526   0.61468
 Alpha virt. eigenvalues --    0.62462   0.62828   0.63878   0.64401   0.64673
 Alpha virt. eigenvalues --    0.65199   0.66256   0.66559   0.67149   0.68111
 Alpha virt. eigenvalues --    0.68870   0.69428   0.71551   0.71901   0.72126
 Alpha virt. eigenvalues --    0.73136   0.73266   0.73980   0.74589   0.75018
 Alpha virt. eigenvalues --    0.75804   0.76815   0.77752   0.78146   0.78742
 Alpha virt. eigenvalues --    0.79059   0.79176   0.79799   0.80200   0.80689
 Alpha virt. eigenvalues --    0.80871   0.81279   0.81556   0.82314   0.82793
 Alpha virt. eigenvalues --    0.83229   0.83807   0.84440   0.84976   0.85325
 Alpha virt. eigenvalues --    0.85647   0.86950   0.87459   0.87902   0.88563
 Alpha virt. eigenvalues --    0.89441   0.89835   0.90028   0.91103   0.92016
 Alpha virt. eigenvalues --    0.92136   0.92840   0.93470   0.93912   0.94534
 Alpha virt. eigenvalues --    0.95489   0.97112   0.97535   0.98795   0.99578
 Alpha virt. eigenvalues --    1.00000   1.00136   1.00676   1.01910   1.03232
 Alpha virt. eigenvalues --    1.04477   1.04940   1.05732   1.07184   1.08282
 Alpha virt. eigenvalues --    1.09478   1.10393   1.10953   1.12847   1.14524
 Alpha virt. eigenvalues --    1.16254   1.16958   1.17762   1.17945   1.19164
 Alpha virt. eigenvalues --    1.20514   1.22110   1.22767   1.23278   1.24131
 Alpha virt. eigenvalues --    1.24342   1.25589   1.28855   1.29280   1.30446
 Alpha virt. eigenvalues --    1.31337   1.31995   1.32856   1.33200   1.34571
 Alpha virt. eigenvalues --    1.35720   1.37440   1.38739   1.38835   1.39499
 Alpha virt. eigenvalues --    1.41048   1.41688   1.42000   1.42955   1.42991
 Alpha virt. eigenvalues --    1.44515   1.46459   1.47284   1.48649   1.48949
 Alpha virt. eigenvalues --    1.50189   1.50584   1.52475   1.53264   1.54158
 Alpha virt. eigenvalues --    1.54478   1.54937   1.55822   1.56787   1.58411
 Alpha virt. eigenvalues --    1.58903   1.59743   1.60433   1.61310   1.62648
 Alpha virt. eigenvalues --    1.63308   1.64436   1.67895   1.70047   1.71060
 Alpha virt. eigenvalues --    1.71376   1.71909   1.74245   1.74636   1.75589
 Alpha virt. eigenvalues --    1.77033   1.77975   1.80392   1.81169   1.81865
 Alpha virt. eigenvalues --    1.83063   1.84291   1.85367   1.86977   1.87573
 Alpha virt. eigenvalues --    1.88104   1.91377   1.91500   1.93190   1.93823
 Alpha virt. eigenvalues --    1.96028   1.96871   1.97853   1.98905   1.99200
 Alpha virt. eigenvalues --    2.01866   2.02626   2.03176   2.04886   2.06051
 Alpha virt. eigenvalues --    2.07355   2.08081   2.09379   2.11053   2.12873
 Alpha virt. eigenvalues --    2.13031   2.13788   2.14175   2.16402   2.19197
 Alpha virt. eigenvalues --    2.24380   2.26312   2.29148   2.30169   2.33842
 Alpha virt. eigenvalues --    2.34701   2.36743   2.40083   2.42388   2.47255
 Alpha virt. eigenvalues --    2.49575   2.53052   2.55845   2.59087   2.60250
 Alpha virt. eigenvalues --    2.62867   2.64581   2.66353   2.66978   2.70658
 Alpha virt. eigenvalues --    2.72675   2.73231   2.74524   2.77388   2.77991
 Alpha virt. eigenvalues --    2.78680   2.79681   2.81532   2.82051   2.83444
 Alpha virt. eigenvalues --    2.84202   2.84683   2.85400   2.86370   2.87038
 Alpha virt. eigenvalues --    2.88293   2.93338   2.94793   2.95601   2.96061
 Alpha virt. eigenvalues --    3.03250   3.04504   3.05724   3.08526   3.11939
 Alpha virt. eigenvalues --    3.12520   3.14597   3.17763   3.19037   3.20254
 Alpha virt. eigenvalues --    3.24165   3.26413   3.28235   3.29602   3.30770
 Alpha virt. eigenvalues --    3.31548   3.33988   3.34163   3.35038   3.36554
 Alpha virt. eigenvalues --    3.38708   3.39237   3.40252   3.40508   3.42935
 Alpha virt. eigenvalues --    3.43499   3.44969   3.46542   3.47491   3.47846
 Alpha virt. eigenvalues --    3.50847   3.52667   3.53224   3.53854   3.54386
 Alpha virt. eigenvalues --    3.56749   3.57016   3.60030   3.60370   3.62156
 Alpha virt. eigenvalues --    3.65316   3.65916   3.67073   3.68388   3.69018
 Alpha virt. eigenvalues --    3.69453   3.70734   3.71123   3.71743   3.74985
 Alpha virt. eigenvalues --    3.75678   3.78707   3.79909   3.81707   3.85212
 Alpha virt. eigenvalues --    3.86518   3.87809   3.88295   3.90599   3.91684
 Alpha virt. eigenvalues --    3.92369   3.93225   3.93955   3.94081   3.95409
 Alpha virt. eigenvalues --    3.97205   3.98104   4.00104   4.00744   4.02578
 Alpha virt. eigenvalues --    4.02942   4.05967   4.07149   4.18627   4.41770
 Alpha virt. eigenvalues --    4.44163   4.53609   4.56976   4.67756   4.71069
 Alpha virt. eigenvalues --    4.76263   4.81621   4.83593   4.86474   4.88515
 Alpha virt. eigenvalues --    4.89597   4.92432   4.92816   4.93143   4.94353
 Alpha virt. eigenvalues --    4.95280   4.96579   4.96966   4.97976   5.01231
 Alpha virt. eigenvalues --    5.01379   5.02302   5.03109   5.04035   5.06082
 Alpha virt. eigenvalues --    5.06876   5.07931   5.09319   5.11706   5.13368
 Alpha virt. eigenvalues --    5.14153   5.15172   5.15645   5.17824   5.20167
 Alpha virt. eigenvalues --    5.21341   5.22864   5.23906   5.24979   5.30784
 Alpha virt. eigenvalues --    5.31019   5.32338   5.36125   5.36937   5.38502
 Alpha virt. eigenvalues --    5.42799   5.44696   5.47576   5.50667   5.53322
 Alpha virt. eigenvalues --    5.57212   5.58695   5.62789   5.65480   5.67305
 Alpha virt. eigenvalues --    5.69916   5.74154   5.77759   5.79686   5.84042
 Alpha virt. eigenvalues --    5.90191   5.95256   6.11248   6.17036   6.23038
 Alpha virt. eigenvalues --    6.84577   6.86746   7.00085   7.02819   7.04262
 Alpha virt. eigenvalues --    7.09097   7.30706   7.33780   7.36346   7.65324
 Alpha virt. eigenvalues --   23.88382  23.89934  24.03668  24.05398  24.07083
 Alpha virt. eigenvalues --   24.14589  24.20202  24.27483  24.37232  35.65304
 Alpha virt. eigenvalues --   35.66643  35.68970  35.71211  35.77667  35.80525
 Alpha virt. eigenvalues --   35.84125  35.88152  50.06327  50.11426
          Condensed to atoms (all electrons):
               1          2          3          4          5          6
     1  N    6.544079   0.267805  -0.057326   0.013866   0.076452   0.032320
     2  C    0.267805   5.314809   0.424214   0.254701  -0.294198   0.009773
     3  H   -0.057326   0.424214   0.550475  -0.067569   0.051433   0.002656
     4  N    0.013866   0.254701  -0.067569   6.943767   0.057285  -0.193681
     5  C    0.076452  -0.294198   0.051433   0.057285   8.036031   0.875032
     6  C    0.032320   0.009773   0.002656  -0.193681   0.875032   5.113427
     7  O   -0.002629   0.025357  -0.000083   0.018918  -0.256548   0.498352
     8  N   -0.005486  -0.023697   0.000377   0.016733   0.011251   0.245521
     9  H    0.001620  -0.002172  -0.000001  -0.002613  -0.008800  -0.014063
    10  C    0.004036  -0.044598   0.001836  -0.036141   0.418471  -0.023622
    11  N   -0.003232   0.000394   0.000021   0.001500   0.023855   0.005461
    12  H    0.000139  -0.000059  -0.000000  -0.000050   0.004880  -0.005867
    13  H    0.000170   0.000035  -0.000000  -0.000093  -0.000120   0.001724
    14  N   -0.031305  -0.005875   0.001522   0.015116   0.102958   0.000853
    15  C    0.102803  -0.114399  -0.018786   0.446461  -3.505514  -0.953715
    16  N   -0.000007  -0.000036   0.000000   0.000000  -0.001076   0.000390
    17  C   -0.000024   0.000034   0.000000   0.000065  -0.004039   0.000239
    18  H   -0.000000   0.000000   0.000000  -0.000000   0.000006   0.000106
    19  C    0.000323   0.000274  -0.000002  -0.000720   0.045351  -0.113661
    20  H    0.000000   0.000000  -0.000000   0.000000   0.000010  -0.000355
    21  C    0.000819   0.000629  -0.000017  -0.000095  -0.006742   0.032369
    22  N   -0.000167   0.001490   0.000001   0.001790   0.027387  -0.027844
    23  H    0.000065  -0.001216  -0.000000  -0.001317  -0.018883   0.020506
    24  H    0.000000  -0.000023  -0.000000  -0.000026  -0.001385   0.003234
    25  N   -0.001288  -0.000397   0.000003   0.001145  -0.018161   0.042885
    26  C    0.000276  -0.001646   0.000002  -0.000739   0.003429  -0.001953
    27  O   -0.000010   0.000092  -0.000000  -0.000029  -0.013068   0.039708
    28  H    0.370947  -0.023794   0.000019  -0.006721   0.081921   0.006287
    29  H    0.000000  -0.000000  -0.000000  -0.000000  -0.000034  -0.000027
               7          8          9         10         11         12
     1  N   -0.002629  -0.005486   0.001620   0.004036  -0.003232   0.000139
     2  C    0.025357  -0.023697  -0.002172  -0.044598   0.000394  -0.000059
     3  H   -0.000083   0.000377  -0.000001   0.001836   0.000021  -0.000000
     4  N    0.018918   0.016733  -0.002613  -0.036141   0.001500  -0.000050
     5  C   -0.256548   0.011251  -0.008800   0.418471   0.023855   0.004880
     6  C    0.498352   0.245521  -0.014063  -0.023622   0.005461  -0.005867
     7  O    8.255983  -0.028036   0.027488   0.038094  -0.003115   0.000201
     8  N   -0.028036   6.878783   0.273783   0.388430  -0.069304  -0.003310
     9  H    0.027488   0.273783   0.475737  -0.020452  -0.008878   0.003794
    10  C    0.038094   0.388430  -0.020452   5.233686   0.373172  -0.009567
    11  N   -0.003115  -0.069304  -0.008878   0.373172   6.824173   0.348628
    12  H    0.000201  -0.003310   0.003794  -0.009567   0.348628   0.299335
    13  H    0.000070   0.005521  -0.000005  -0.037615   0.372205  -0.020781
    14  N    0.004728   0.007211   0.002962   0.334115  -0.109707   0.004939
    15  C   -0.024986  -0.077487   0.009279  -1.198059  -0.049314  -0.013566
    16  N   -0.000097  -0.000112  -0.006398  -0.004967   0.000546   0.001792
    17  C    0.000553   0.012142  -0.013934  -0.014343   0.002159   0.003693
    18  H   -0.000003  -0.000139   0.000041   0.000029  -0.000011  -0.000006
    19  C   -0.014073   0.020111   0.011938   0.021798   0.001557   0.000697
    20  H    0.000050   0.000519   0.000022   0.000116  -0.000000  -0.000001
    21  C   -0.005714   0.017983  -0.034996  -0.017712   0.003277   0.001101
    22  N   -0.046894  -0.009155  -0.015291  -0.013921   0.000300  -0.000367
    23  H    0.081043   0.001391   0.011239   0.007388  -0.000331   0.000071
    24  H    0.001663  -0.000003   0.000228   0.000147  -0.000015  -0.000000
    25  N   -0.018483  -0.073375  -0.113500  -0.033093  -0.001716  -0.012304
    26  C    0.010946   0.005794   0.022413   0.046869   0.012912   0.010018
    27  O    0.000636  -0.057320   0.041978  -0.046601  -0.048721  -0.030291
    28  H    0.000015  -0.000447  -0.000020  -0.000104  -0.000046  -0.000005
    29  H    0.000006   0.000114  -0.000013  -0.000111   0.000124   0.000080
              13         14         15         16         17         18
     1  N    0.000170  -0.031305   0.102803  -0.000007  -0.000024  -0.000000
     2  C    0.000035  -0.005875  -0.114399  -0.000036   0.000034   0.000000
     3  H   -0.000000   0.001522  -0.018786   0.000000   0.000000   0.000000
     4  N   -0.000093   0.015116   0.446461   0.000000   0.000065  -0.000000
     5  C   -0.000120   0.102958  -3.505514  -0.001076  -0.004039   0.000006
     6  C    0.001724   0.000853  -0.953715   0.000390   0.000239   0.000106
     7  O    0.000070   0.004728  -0.024986  -0.000097   0.000553  -0.000003
     8  N    0.005521   0.007211  -0.077487  -0.000112   0.012142  -0.000139
     9  H   -0.000005   0.002962   0.009279  -0.006398  -0.013934   0.000041
    10  C   -0.037615   0.334115  -1.198059  -0.004967  -0.014343   0.000029
    11  N    0.372205  -0.109707  -0.049314   0.000546   0.002159  -0.000011
    12  H   -0.020781   0.004939  -0.013566   0.001792   0.003693  -0.000006
    13  H    0.409547   0.005285   0.010004  -0.000090  -0.000172   0.000000
    14  N    0.005285   6.977807   0.223473  -0.000410  -0.000730  -0.000000
    15  C    0.010004   0.223473  11.173712  -0.002362  -0.009275   0.000007
    16  N   -0.000090  -0.000410  -0.002362   6.467120   0.322718  -0.036569
    17  C   -0.000172  -0.000730  -0.009275   0.322718   5.529259   0.399409
    18  H    0.000000  -0.000000   0.000007  -0.036569   0.399409   0.546774
    19  C   -0.000022   0.003303   0.011178  -0.005282  -0.181166  -0.035833
    20  H    0.000000   0.000001  -0.000006   0.005416  -0.074891  -0.006866
    21  C   -0.000805  -0.001487  -0.026490  -0.117017   0.473103   0.001012
    22  N    0.000010  -0.000206   0.023993   0.001211   0.022825  -0.001325
    23  H    0.000001   0.000167  -0.013898   0.000411  -0.002672   0.000021
    24  H    0.000000   0.000005  -0.000205  -0.000164  -0.001291  -0.000009
    25  N    0.001438  -0.001539   0.031535   0.044154  -0.028069   0.002199
    26  C   -0.001828  -0.000153  -0.043557   0.369576  -0.410178   0.017026
    27  O    0.012001   0.001504   0.032512  -0.042183   0.037360  -0.000654
    28  H    0.000022   0.015113  -0.129204  -0.000000   0.000000   0.000000
    29  H   -0.000002  -0.000005  -0.000021   0.379618  -0.061245  -0.008444
              19         20         21         22         23         24
     1  N    0.000323   0.000000   0.000819  -0.000167   0.000065   0.000000
     2  C    0.000274   0.000000   0.000629   0.001490  -0.001216  -0.000023
     3  H   -0.000002  -0.000000  -0.000017   0.000001  -0.000000  -0.000000
     4  N   -0.000720   0.000000  -0.000095   0.001790  -0.001317  -0.000026
     5  C    0.045351   0.000010  -0.006742   0.027387  -0.018883  -0.001385
     6  C   -0.113661  -0.000355   0.032369  -0.027844   0.020506   0.003234
     7  O   -0.014073   0.000050  -0.005714  -0.046894   0.081043   0.001663
     8  N    0.020111   0.000519   0.017983  -0.009155   0.001391  -0.000003
     9  H    0.011938   0.000022  -0.034996  -0.015291   0.011239   0.000228
    10  C    0.021798   0.000116  -0.017712  -0.013921   0.007388   0.000147
    11  N    0.001557  -0.000000   0.003277   0.000300  -0.000331  -0.000015
    12  H    0.000697  -0.000001   0.001101  -0.000367   0.000071  -0.000000
    13  H   -0.000022   0.000000  -0.000805   0.000010   0.000001   0.000000
    14  N    0.003303   0.000001  -0.001487  -0.000206   0.000167   0.000005
    15  C    0.011178  -0.000006  -0.026490   0.023993  -0.013898  -0.000205
    16  N   -0.005282   0.005416  -0.117017   0.001211   0.000411  -0.000164
    17  C   -0.181166  -0.074891   0.473103   0.022825  -0.002672  -0.001291
    18  H   -0.035833  -0.006866   0.001012  -0.001325   0.000021  -0.000009
    19  C    7.190267   0.532648  -1.628514  -0.014850   0.001517   0.025534
    20  H    0.532648   0.577370  -0.145019   0.000545   0.000266   0.004509
    21  C   -1.628514  -0.145019   6.704069   0.331085  -0.029328  -0.068481
    22  N   -0.014850   0.000545   0.331085   6.709886   0.264083   0.365536
    23  H    0.001517   0.000266  -0.029328   0.264083   0.323006  -0.001181
    24  H    0.025534   0.004509  -0.068481   0.365536  -0.001181   0.410191
    25  N    0.140309   0.006851   0.106664  -0.100534   0.011828   0.009059
    26  C    0.379063   0.013475  -0.356146  -0.020495   0.010372   0.001587
    27  O   -0.010127   0.000101  -0.023329   0.000992   0.000591   0.000127
    28  H   -0.000000  -0.000000   0.000002   0.000003  -0.000001  -0.000000
    29  H    0.006918  -0.000209   0.012214   0.000240  -0.000005  -0.000014
              25         26         27         28         29
     1  N   -0.001288   0.000276  -0.000010   0.370947   0.000000
     2  C   -0.000397  -0.001646   0.000092  -0.023794  -0.000000
     3  H    0.000003   0.000002  -0.000000   0.000019  -0.000000
     4  N    0.001145  -0.000739  -0.000029  -0.006721  -0.000000
     5  C   -0.018161   0.003429  -0.013068   0.081921  -0.000034
     6  C    0.042885  -0.001953   0.039708   0.006287  -0.000027
     7  O   -0.018483   0.010946   0.000636   0.000015   0.000006
     8  N   -0.073375   0.005794  -0.057320  -0.000447   0.000114
     9  H   -0.113500   0.022413   0.041978  -0.000020  -0.000013
    10  C   -0.033093   0.046869  -0.046601  -0.000104  -0.000111
    11  N   -0.001716   0.012912  -0.048721  -0.000046   0.000124
    12  H   -0.012304   0.010018  -0.030291  -0.000005   0.000080
    13  H    0.001438  -0.001828   0.012001   0.000022  -0.000002
    14  N   -0.001539  -0.000153   0.001504   0.015113  -0.000005
    15  C    0.031535  -0.043557   0.032512  -0.129204  -0.000021
    16  N    0.044154   0.369576  -0.042183  -0.000000   0.379618
    17  C   -0.028069  -0.410178   0.037360   0.000000  -0.061245
    18  H    0.002199   0.017026  -0.000654   0.000000  -0.008444
    19  C    0.140309   0.379063  -0.010127  -0.000000   0.006918
    20  H    0.006851   0.013475   0.000101  -0.000000  -0.000209
    21  C    0.106664  -0.356146  -0.023329   0.000002   0.012214
    22  N   -0.100534  -0.020495   0.000992   0.000003   0.000240
    23  H    0.011828   0.010372   0.000591  -0.000001  -0.000005
    24  H    0.009059   0.001587   0.000127  -0.000000  -0.000014
    25  N    7.205358   0.359749   0.040091   0.000005  -0.005711
    26  C    0.359749   4.610506   0.287008  -0.000023  -0.011458
    27  O    0.040091   0.287008   8.389151   0.000001   0.009816
    28  H    0.000005  -0.000023   0.000001   0.434022  -0.000000
    29  H   -0.005711  -0.011458   0.009816  -0.000000   0.411834
 Mulliken charges:
               1
     1  N   -0.314246
     2  C    0.212501
     3  H    0.111226
     4  N   -0.461552
     5  C    0.312815
     6  C    0.403944
     7  O   -0.563444
     8  N   -0.537792
     9  H    0.358615
    10  C    0.632718
    11  N   -0.675894
    12  H    0.416805
    13  H    0.243501
    14  N   -0.549644
    15  C    0.115887
    16  N   -0.376181
    17  C   -0.001532
    18  H    0.123227
    19  C   -0.388537
    20  H    0.085447
    21  C    0.777568
    22  N   -0.500328
    23  H    0.334867
    24  H    0.250975
    25  N   -0.595103
    26  C    0.687157
    27  O   -0.621340
    28  H    0.252007
    29  H    0.266335
 Sum of Mulliken charges =  -0.00000
 Mulliken charges with hydrogens summed into heavy atoms:
               1
     1  N   -0.062239
     2  C    0.323727
     4  N   -0.461552
     5  C    0.312815
     6  C    0.403944
     7  O   -0.563444
     8  N   -0.179176
    10  C    0.632718
    11  N   -0.015588
    14  N   -0.549644
    15  C    0.115887
    16  N   -0.109847
    17  C    0.121694
    19  C   -0.303090
    21  C    0.777568
    22  N    0.085514
    25  N   -0.595103
    26  C    0.687157
    27  O   -0.621340
 Electronic spatial extent (au):  <R**2>=           5753.1533
 Charge=             -0.0000 electrons
 Dipole moment (field-independent basis, Debye):
    X=             -8.4037    Y=              1.2462    Z=             -0.1668  Tot=              8.4973
 Quadrupole moment (field-independent basis, Debye-Ang):
   XX=            -52.0928   YY=           -110.3726   ZZ=           -113.0369
   XY=             16.8385   XZ=              1.5498   YZ=             -0.2539
 Traceless Quadrupole moment (field-independent basis, Debye-Ang):
   XX=             39.7413   YY=            -18.5385   ZZ=            -21.2028
   XY=             16.8385   XZ=              1.5498   YZ=             -0.2539
 Octapole moment (field-independent basis, Debye-Ang**2):
  XXX=            -82.7630  YYY=              5.8887  ZZZ=              0.2110  XYY=            -73.7181
  XXY=             34.9893  XXZ=              0.5829  XZZ=             -2.4941  YZZ=              1.9313
  YYZ=             -1.8449  XYZ=              2.2122
 Hexadecapole moment (field-independent basis, Debye-Ang**3):
 XXXX=          -3863.7180 YYYY=          -1364.0096 ZZZZ=           -118.0971 XXXY=             71.5474
 XXXZ=             36.6887 YYYX=            183.7116 YYYZ=             -1.2731 ZZZX=             -0.0783
 ZZZY=              0.7120 XXYY=          -1198.9674 XXZZ=          -1099.4536 YYZZ=           -293.7208
 XXYZ=             -0.2865 YYXZ=              6.5721 ZZXY=             -9.4578
 N-N= 1.415568612273D+03 E-N=-5.023582922599D+03  KE= 9.350626267027D+02
 Calling FoFJK, ICntrl=      2127 FMM=F ISym2X=0 I1Cent= 0 IOpClX= 0 NMat=1 NMatS=1 NMatT=0.
 ***** Axes restored to original set *****
 -------------------------------------------------------------------
 Center     Atomic                   Forces (Hartrees/Bohr)
 Number     Number              X              Y              Z
 -------------------------------------------------------------------
      1        7          -0.022603475    0.011052088    0.074253691
      2        6           0.011431699   -0.004057426   -0.043885605
      3        1          -0.004809563    0.002072095    0.004668738
      4        7           0.016285229   -0.007352301   -0.000476702
      5        6          -0.095762076    0.038953427   -0.007737836
      6        6           0.045909162   -0.019288037   -0.079403359
      7        8           0.025413400   -0.010351784    0.009429108
      8        7          -0.064101957    0.024595594    0.027492789
      9        1           0.007841384   -0.001996493   -0.021986237
     10        6          -0.035262777    0.014418380    0.027861365
     11        7          -0.021049008    0.005798143    0.022890580
     12        1           0.005548289   -0.001298429   -0.006994870
     13        1          -0.006942029    0.002694068    0.006050692
     14        7           0.024469932   -0.009569224    0.021107603
     15        6           0.059776945   -0.023608893    0.030379547
     16        7          -0.046797915    0.020688151    0.013888781
     17        6          -0.021290558    0.007062078   -0.013175583
     18        1           0.009532841   -0.004219050   -0.000699411
     19        6           0.018842957   -0.006406848   -0.013299708
     20        1           0.000217415    0.000142640   -0.008169842
     21        6           0.026228344   -0.009786514    0.019392490
     22        7          -0.020238428    0.007419612   -0.017433808
     23        1          -0.021733180    0.008573544    0.016811281
     24        1          -0.002295071    0.000792647   -0.004796744
     25        7           0.020310954   -0.007649912   -0.025654048
     26        6           0.019080306   -0.007714633    0.029540913
     27        8           0.036600352   -0.013884413   -0.064069350
     28        1           0.009897192   -0.006370270   -0.018271145
     29        1           0.025499635   -0.010708237    0.022286670
 -------------------------------------------------------------------
 Cartesian Forces:  Max     0.095762076 RMS     0.026564063

 GradGradGradGradGradGradGradGradGradGradGradGradGradGradGradGradGradGrad
 Berny optimization.
 FormGI is forming the generalized inverse of G from B-inverse, IUseBI=4.
 Internal  Forces:  Max     0.072354517 RMS     0.015993361
 Search for a local minimum.
 Step number   1 out of a maximum of  166
 All quantities printed in internal units (Hartrees-Bohrs-Radians)
 Mixed Optimization -- RFO/linear search
 Second derivative matrix not updated -- first step.
 ITU=  0
     Eigenvalues ---    0.00230   0.00799   0.01132   0.01426   0.01561
     Eigenvalues ---    0.01644   0.01746   0.01822   0.01899   0.01964
     Eigenvalues ---    0.02055   0.02145   0.02225   0.02316   0.02380
     Eigenvalues ---    0.02425   0.02440   0.02532   0.02546   0.02610
     Eigenvalues ---    0.02617   0.02632   0.02826   0.02840   0.03099
     Eigenvalues ---    0.03099   0.05817   0.06561   0.10056   0.13080
     Eigenvalues ---    0.15889   0.15949   0.15966   0.15971   0.16000
     Eigenvalues ---    0.16000   0.16000   0.16000   0.16000   0.20371
     Eigenvalues ---    0.21875   0.22473   0.22705   0.23218   0.23508
     Eigenvalues ---    0.23686   0.24733   0.25000   0.25000   0.25000
     Eigenvalues ---    0.25000   0.34875   0.35085   0.35170   0.37230
     Eigenvalues ---    0.37230   0.37230   0.42372   0.43214   0.44261
     Eigenvalues ---    0.46370   0.47681   0.47688   0.47688   0.47688
     Eigenvalues ---    0.49170   0.50693   0.52172   0.52462   0.54074
     Eigenvalues ---    0.54291   0.55475   0.56062   0.56752   0.57403
     Eigenvalues ---    0.57866   0.58603   0.63016   0.69002   0.78334
     Eigenvalues ---    0.80209
 RFO step:  Lambda=-8.77741050D-02 EMin= 2.30000000D-03
 Linear search not attempted -- first point.
 Maximum step size (   0.300) exceeded in Quadratic search.
    -- Step size scaled by   0.626
 Iteration  1 RMS(Cart)=  0.05541261 RMS(Int)=  0.00126642
 Iteration  2 RMS(Cart)=  0.00175839 RMS(Int)=  0.00013807
 Iteration  3 RMS(Cart)=  0.00000119 RMS(Int)=  0.00013807
 Iteration  4 RMS(Cart)=  0.00000000 RMS(Int)=  0.00013807
 Variable       Old X    -DE/DX   Delta X   Delta X   Delta X     New X
                                 (Linear)    (Quad)   (Total)
    R1        2.56017   0.03012   0.00000   0.02801   0.02819   2.58835
    R2        2.51817   0.02380   0.00000   0.02560   0.02578   2.54395
    R3        1.95152  -0.01963   0.00000  -0.02404  -0.02404   1.92748
    R4        2.02201   0.00634   0.00000   0.00864   0.00864   2.03064
    R5        2.47612  -0.00187   0.00000  -0.00605  -0.00611   2.47002
    R6        2.76347  -0.03010   0.00000  -0.04291  -0.04314   2.72034
    R7        2.52924   0.06417   0.00000   0.06437   0.06424   2.59348
    R8        2.49299   0.07235   0.00000   0.07284   0.07249   2.56548
    R9        2.37803  -0.01576   0.00000  -0.01109  -0.01109   2.36694
   R10        2.77718  -0.03915   0.00000  -0.05772  -0.05754   2.71964
   R11        1.88973   0.04138   0.00000   0.04588   0.04591   1.93563
   R12        2.55806   0.02082   0.00000   0.01481   0.01507   2.57313
   R13        2.99683   0.02080   0.00000   0.07149   0.07151   3.06834
   R14        2.52789   0.00518   0.00000   0.00462   0.00458   2.53247
   R15        2.55846  -0.02155   0.00000  -0.02509  -0.02497   2.53349
   R16        1.88973   0.05302   0.00000   0.05886   0.05883   1.94855
   R17        1.88973   0.00445   0.00000   0.00494   0.00494   1.89467
   R18        2.73765   0.04353   0.00000   0.12687   0.12686   2.86451
   R19        2.52779   0.00233   0.00000   0.00411   0.00393   2.53171
   R20        2.52238   0.02308   0.00000   0.02187   0.02188   2.54425
   R21        2.76972  -0.03353   0.00000  -0.04817  -0.04819   2.72153
   R22        1.84159   0.03393   0.00000   0.03472   0.03472   1.87631
   R23        2.02201   0.00872   0.00000   0.01188   0.01188   2.03389
   R24        2.56367  -0.00051   0.00000   0.00095   0.00098   2.56465
   R25        2.02201   0.00809   0.00000   0.01101   0.01101   2.03302
   R26        2.65645   0.02063   0.00000   0.02546   0.02548   2.68193
   R27        2.44455   0.04557   0.00000   0.03670   0.03670   2.48125
   R28        2.53350  -0.00053   0.00000  -0.00082  -0.00084   2.53267
   R29        1.88973   0.02878   0.00000   0.03193   0.03193   1.92166
   R30        1.88973   0.00504   0.00000   0.00559   0.00559   1.89532
   R31        2.52536   0.00082   0.00000  -0.00031  -0.00030   2.52506
   R32        2.37803  -0.03246   0.00000  -0.02265  -0.02263   2.35540
    A1        1.90449  -0.01824   0.00000  -0.02948  -0.02921   1.87528
    A2        2.12936   0.01813   0.00000   0.03756   0.03742   2.16679
    A3        2.24730   0.00009   0.00000  -0.00811  -0.00825   2.23905
    A4        2.17395  -0.01439   0.00000  -0.02629  -0.02631   2.14764
    A5        1.93528   0.02272   0.00000   0.03726   0.03729   1.97257
    A6        2.17395  -0.00833   0.00000  -0.01096  -0.01098   2.16297
    A7        1.80891   0.00073   0.00000  -0.00999  -0.01047   1.79844
    A8        2.26218   0.00704   0.00000  -0.00079  -0.00042   2.26176
    A9        1.89314   0.00998   0.00000   0.01950   0.01940   1.91254
   A10        2.12786  -0.01702   0.00000  -0.01872  -0.01897   2.10889
   A11        2.12875   0.04196   0.00000   0.07530   0.07528   2.20403
   A12        2.02569  -0.02598   0.00000  -0.04313  -0.04311   1.98258
   A13        2.12875  -0.01598   0.00000  -0.03216  -0.03218   2.09657
   A14        2.10157  -0.02989   0.00000  -0.05637  -0.05659   2.04497
   A15        2.08006   0.02994   0.00000   0.04964   0.05006   2.13012
   A16        2.10156  -0.00005   0.00000   0.00673   0.00652   2.10809
   A17        2.08891  -0.01620   0.00000  -0.02834  -0.02859   2.06032
   A18        2.10537   0.02214   0.00000   0.02793   0.02832   2.13369
   A19        2.08891  -0.00594   0.00000   0.00041   0.00027   2.08917
   A20        2.09439   0.00615   0.00000   0.00760   0.00755   2.10194
   A21        2.09440  -0.01115   0.00000  -0.02421  -0.02418   2.07021
   A22        2.09440   0.00499   0.00000   0.01661   0.01662   2.11101
   A23        2.07440  -0.02760   0.00000  -0.05513  -0.05524   2.01916
   A24        1.88296  -0.01519   0.00000  -0.01729  -0.01702   1.86594
   A25        2.24723  -0.00333   0.00000  -0.02212  -0.02192   2.22531
   A26        2.15300   0.01852   0.00000   0.03941   0.03894   2.19193
   A27        2.08279   0.00642   0.00000   0.01081   0.01082   2.09360
   A28        2.07735   0.00622   0.00000   0.01873   0.01873   2.09608
   A29        2.11721  -0.01254   0.00000  -0.02901  -0.02903   2.08818
   A30        2.09576  -0.00826   0.00000  -0.02102  -0.02105   2.07471
   A31        2.09167   0.00494   0.00000   0.01274   0.01281   2.10448
   A32        2.09576   0.00332   0.00000   0.00828   0.00824   2.10400
   A33        2.09008   0.00662   0.00000   0.01085   0.01081   2.10089
   A34        2.10303  -0.01557   0.00000  -0.02757  -0.02749   2.07553
   A35        2.09008   0.00894   0.00000   0.01672   0.01668   2.10676
   A36        2.08883   0.01968   0.00000   0.03632   0.03631   2.12514
   A37        2.10552  -0.00242   0.00000  -0.00414  -0.00411   2.10141
   A38        2.08883  -0.01726   0.00000  -0.03219  -0.03220   2.05663
   A39        2.09440  -0.00073   0.00000  -0.00184  -0.00184   2.09256
   A40        2.09440   0.00213   0.00000   0.00539   0.00539   2.09979
   A41        2.09440  -0.00141   0.00000  -0.00355  -0.00355   2.09084
   A42        2.32346  -0.01160   0.00000  -0.02106  -0.02111   2.30235
   A43        1.86028  -0.00037   0.00000  -0.00086  -0.00072   1.85956
   A44        2.09790   0.01198   0.00000   0.02197   0.02188   2.11978
   A45        2.08546  -0.00535   0.00000  -0.01382  -0.01391   2.07156
   A46        2.09886  -0.00379   0.00000  -0.00245  -0.00249   2.09637
   A47        2.09886   0.00914   0.00000   0.01627   0.01639   2.11526
   A48        2.39194  -0.01247   0.00000  -0.03962  -0.03956   2.35238
   A49        3.27828   0.00643   0.00000   0.01522   0.01530   3.29359
   A50        2.92876   0.00754   0.00000   0.02401   0.02403   2.95279
   A51        3.19503  -0.00211   0.00000  -0.01585  -0.01591   3.17912
   A52        3.04658   0.00318   0.00000   0.02276   0.02298   3.06956
    D1        3.14159   0.00028   0.00000   0.00098   0.00098  -3.14061
    D2        0.00000   0.00060   0.00000   0.00308   0.00311   0.00311
    D3       -0.06297  -0.00024   0.00000  -0.00024  -0.00024  -0.06321
    D4        3.07862   0.00008   0.00000   0.00187   0.00189   3.08051
    D5       -0.00000  -0.00052   0.00000  -0.00268  -0.00261  -0.00261
    D6       -3.14159  -0.00032   0.00000  -0.00157  -0.00151   3.14009
    D7       -3.07311  -0.00073   0.00000  -0.00341  -0.00341  -3.07651
    D8        0.06849  -0.00053   0.00000  -0.00231  -0.00231   0.06618
    D9        0.00000  -0.00041   0.00000  -0.00209  -0.00213  -0.00213
   D10       -3.14159  -0.00009   0.00000   0.00001   0.00002  -3.14157
   D11        3.14159   0.00010   0.00000   0.00057   0.00057  -3.14103
   D12       -0.00000   0.00008   0.00000   0.00044   0.00043   0.00043
   D13       -0.00000   0.00010   0.00000   0.00028   0.00025   0.00025
   D14       -3.14159   0.00013   0.00000   0.00033   0.00028  -3.14131
   D15        3.14159   0.00012   0.00000   0.00042   0.00040  -3.14120
   D16       -0.00000   0.00015   0.00000   0.00048   0.00042   0.00042
   D17        0.00000   0.00027   0.00000   0.00137   0.00139   0.00139
   D18        3.14159   0.00008   0.00000   0.00034   0.00031  -3.14128
   D19       -3.14159   0.00025   0.00000   0.00125   0.00127  -3.14032
   D20        0.00000   0.00007   0.00000   0.00022   0.00019   0.00019
   D21        3.14159   0.00045   0.00000   0.00200   0.00191  -3.13968
   D22       -0.00000  -0.00043   0.00000  -0.00147  -0.00137  -0.00137
   D23        0.00000   0.00048   0.00000   0.00205   0.00194   0.00194
   D24       -3.14159  -0.00039   0.00000  -0.00142  -0.00135   3.14025
   D25       -0.06426   0.00108   0.00000   0.00279   0.00263  -0.06163
   D26        3.11125   0.00149   0.00000   0.00899   0.00863   3.11987
   D27        3.11584  -0.00098   0.00000  -0.00721  -0.00709   3.10875
   D28        0.00816  -0.00056   0.00000  -0.00101  -0.00108   0.00708
   D29       -3.14159   0.00075   0.00000   0.00274   0.00261  -3.13898
   D30        0.00000   0.00049   0.00000   0.00180   0.00177   0.00177
   D31        0.00000  -0.00013   0.00000  -0.00073  -0.00079  -0.00079
   D32       -3.14159  -0.00039   0.00000  -0.00167  -0.00163   3.13997
   D33       -0.00000   0.00068   0.00000   0.00394   0.00409   0.00409
   D34        3.14159  -0.00048   0.00000  -0.00252  -0.00241   3.13918
   D35        3.14159   0.00093   0.00000   0.00487   0.00490  -3.13669
   D36       -0.00000  -0.00022   0.00000  -0.00159  -0.00159  -0.00160
   D37       -0.00000  -0.00027   0.00000  -0.00110  -0.00106  -0.00106
   D38        3.14159  -0.00053   0.00000  -0.00204  -0.00191   3.13968
   D39       -0.09729  -0.00032   0.00000   0.00055   0.00118  -0.09610
   D40        3.11089  -0.00089   0.00000  -0.00645  -0.00635   3.10454
   D41        3.14159  -0.00025   0.00000  -0.00121  -0.00121   3.14038
   D42        0.00000  -0.00002   0.00000   0.00005   0.00009   0.00009
   D43       -3.14159   0.00020   0.00000   0.00042   0.00046  -3.14113
   D44       -0.00000   0.00054   0.00000   0.00299   0.00303   0.00303
   D45       -0.11431   0.00032   0.00000   0.00366   0.00376  -0.11054
   D46        3.02728   0.00066   0.00000   0.00623   0.00633   3.03361
   D47       -0.00000  -0.00012   0.00000  -0.00051  -0.00055  -0.00055
   D48        3.14159   0.00005   0.00000   0.00055   0.00057  -3.14102
   D49       -3.02459  -0.00154   0.00000  -0.00712  -0.00705  -3.03164
   D50        0.11700  -0.00137   0.00000  -0.00606  -0.00592   0.11107
   D51       -3.14159  -0.00040   0.00000  -0.00243  -0.00243   3.13916
   D52        0.00000  -0.00061   0.00000  -0.00331  -0.00327  -0.00326
   D53       -0.00000  -0.00006   0.00000   0.00014   0.00018   0.00018
   D54        3.14159  -0.00027   0.00000  -0.00074  -0.00065   3.14094
   D55        3.14159   0.00031   0.00000   0.00178   0.00176  -3.13984
   D56       -0.00000   0.00024   0.00000   0.00108   0.00106   0.00106
   D57       -0.00000   0.00011   0.00000   0.00090   0.00092   0.00092
   D58        3.14159   0.00003   0.00000   0.00020   0.00023  -3.14137
   D59        3.14159  -0.00013   0.00000  -0.00086  -0.00085   3.14073
   D60       -0.00000  -0.00003   0.00000  -0.00031  -0.00030  -0.00030
   D61       -0.00000  -0.00006   0.00000  -0.00017  -0.00018  -0.00018
   D62        3.14159   0.00004   0.00000   0.00038   0.00038  -3.14122
   D63       -3.07315  -0.00012   0.00000   0.00008   0.00004  -3.07311
   D64        0.00000   0.00019   0.00000   0.00145   0.00142   0.00142
   D65        0.06844  -0.00019   0.00000  -0.00062  -0.00063   0.06781
   D66       -3.14159   0.00012   0.00000   0.00075   0.00075  -3.14084
   D67        3.08949  -0.00057   0.00000  -0.00169  -0.00160   3.08789
   D68       -0.05210  -0.00074   0.00000  -0.00275  -0.00274  -0.05484
   D69        0.00000  -0.00025   0.00000  -0.00171  -0.00166  -0.00166
   D70       -3.14159  -0.00042   0.00000  -0.00277  -0.00280   3.13879
   D71       -3.00357  -0.00187   0.00000  -0.01001  -0.00975  -3.01332
   D72        0.13802  -0.00170   0.00000  -0.00894  -0.00859   0.12943
         Item               Value     Threshold  Converged?
 Maximum Force            0.072355     0.000450     NO 
 RMS     Force            0.015993     0.000300     NO 
 Maximum Displacement     0.309298     0.001800     NO 
 RMS     Displacement     0.055656     0.001200     NO 
 Predicted change in Energy=-4.175138D-02
 GradGradGradGradGradGradGradGradGradGradGradGradGradGradGradGradGradGrad

                          Input orientation:                          
 ---------------------------------------------------------------------
 Center     Atomic      Atomic             Coordinates (Angstroms)
 Number     Number       Type             X           Y           Z
 ---------------------------------------------------------------------
      1          7           0       -1.423250    2.044396   -1.696730
      2          6           0       -2.367187    2.434226   -2.609466
      3          1           0       -3.328186    2.824365   -2.328444
      4          7           0       -1.976308    2.279027   -3.847035
      5          6           0       -0.649734    1.738794   -3.703423
      6          6           0        0.255341    1.374161   -4.668511
      7          8           0        0.087491    1.447325   -5.907585
      8          7           0        1.492927    0.868288   -4.135891
      9          1           0        2.209302    0.581205   -4.809363
     10          6           0        1.717735    0.773218   -2.796306
     11          7           0        2.900610    0.293299   -2.388368
     12          1           0        3.614752    0.010336   -3.076238
     13          1           0        3.075977    0.221609   -1.403816
     14          7           0        0.801989    1.142037   -1.889245
     15          6           0       -0.350256    1.612238   -2.385334
     16          7           0        5.399511   -0.627971   -6.392468
     17          6           0        5.220735   -0.589713   -7.726359
     18          1           0        6.019220   -0.921138   -8.367428
     19          6           0        4.054733   -0.138136   -8.253977
     20          1           0        3.916260   -0.106897   -9.320398
     21          6           0        3.024569    0.289690   -7.376537
     22          7           0        1.874058    0.734680   -7.826354
     23          1           0        1.155293    1.033337   -7.171937
     24          1           0        1.700140    0.781144   -8.813026
     25          7           0        3.203765    0.248378   -6.048983
     26          6           0        4.346302   -0.190616   -5.512945
     27          8           0        4.508854   -0.224195   -4.277623
     28          1           0       -1.529638    2.139720   -0.686804
     29          1           0        6.216618   -1.043830   -6.011356
 ---------------------------------------------------------------------
                    Distance matrix (angstroms):
                    1          2          3          4          5
     1  N    0.000000
     2  C    1.369698   0.000000
     3  H    2.153183   1.074570   0.000000
     4  N    2.232653   1.307077   2.105015   0.000000
     5  C    2.172219   2.151746   3.200490   1.439539   0.000000
     6  C    3.478270   3.498722   4.518924   2.544378   1.372411
     7  O    4.513328   4.228120   5.135497   3.032632   2.342388
     8  N    3.979551   4.436509   5.507834   3.756223   2.352830
     9  H    5.002484   5.405320   6.469196   4.618225   3.276767
    10  C    3.562407   4.413666   5.466939   4.125221   2.712952
    11  N    4.715980   5.690531   6.723674   5.463987   4.052625
    12  H    5.605524   6.471222   7.528768   6.082848   4.644003
    13  H    4.863269   5.998108   6.974423   5.977279   4.633677
    14  N    2.408942   3.497449   4.481235   3.583939   2.398929
    15  C    1.346199   2.189500   3.215673   2.285874   1.357594
    16  N    8.702963   9.165683  10.227786   8.326618   7.030356
    17  C    9.350802   9.638639  10.671338   8.664655   7.487881
    18  H   10.425113  10.711882  11.741896   9.726432   8.561725
    19  C    8.818687   8.928527   9.919468   7.850940   6.808995
    20  H    9.552944   9.538114  10.486263   8.388843   7.470293
    21  C    7.424439   7.509662   8.500901   6.436118   5.393716
[...]
 22064,-0.00009027,0.00304493,0.00103392,-0.00219298,-0.00021121,-0.000
 13088,0.00033132,-0.02766589,0.01060656,0.01023726,-0.19800686,0.07225
 129,0.13108438,0.20553389,-0.00021240,-0.00004934,0.00024660,-0.000163
 87,0.00007547,0.00035488,-0.00000460,0.00000236,0.00003008,0.00030823,
 -0.00023862,-0.00008744,0.00024226,0.00098181,0.00232897,-0.00394746,0
 .00094435,-0.00703264,-0.00019068,-0.00741656,0.00745109,0.00184416,-0
 .00140199,0.00132198,-0.00082182,0.00120468,0.00125804,-0.00112738,0.0
 0041756,-0.00015354,0.00098669,-0.00050608,0.00013931,-0.00045516,0.00
 025522,0.00055412,0.00003130,0.00002018,-0.00003507,0.00128401,-0.0005
 6133,0.00018295,-0.00099056,0.00077330,-0.00109246,-0.00050532,0.00033
 097,-0.00101687,0.00124235,0.00114197,0.00064488,-0.00022272,-0.000631
 25,0.00003475,0.00096874,0.00525869,0.00081430,-0.00012471,-0.00049087
 ,-0.00013222,0.01036682,-0.00495942,-0.00384213,0.07251086,-0.04530523
 ,-0.05269388,-0.07115008,0.05487089,-0.00062017,0.00025310,0.00071457,
 -0.00044895,0.00018452,0.00100888,-0.00001966,0.00000794,0.00009396,0.
 00085277,-0.00034516,-0.00025421,-0.00046072,0.00019878,0.00574657,-0.
 00628192,0.00251137,-0.02296521,-0.00573897,0.00233456,0.01723977,0.00
 589728,-0.00236056,0.00317081,-0.00346044,0.00136131,0.00076279,-0.003
 11324,0.00128067,-0.00185710,0.00277995,-0.00117656,0.00062261,-0.0013
 7848,0.00055652,0.00139728,0.00006446,-0.00000855,-0.00011806,0.002760
 60,-0.00112014,0.00094448,-0.00233091,0.00094051,-0.00271181,-0.000731
 29,0.00027539,-0.00334076,0.00134307,-0.00052426,0.00435931,-0.0003977
 9,0.00015896,-0.00019697,-0.00745718,0.00287568,-0.00200641,0.00003707
 ,-0.00001090,-0.00002549,0.00148059,-0.00042977,0.02825763,0.12436104,
 -0.04987418,-0.20995480,-0.12393621,0.04958097,0.19521924,-0.00007356,
 0.00002844,0.00003286,-0.00003418,0.00001433,0.00010674,-0.00000056,0.
 00000263,0.00000829,0.00003244,-0.00002798,-0.00005991,0.00003678,-0.0
 0002132,0.00037693,-0.00042927,0.00016090,-0.00137566,-0.00249929,0.00
 098323,0.00217735,0.00038126,-0.00016509,0.00009714,-0.00022265,0.0000
 5363,-0.00002873,-0.00005756,0.00003795,-0.00018744,0.00003891,-0.0000
 3544,0.00004861,-0.00000873,0.00001768,0.00001738,0.00000729,0.0000053
 6,-0.00000631,0.00002578,-0.00001820,0.00009630,-0.00005594,0.00002773
 ,-0.00012231,-0.00029170,0.00005736,0.00112589,-0.00038450,-0.00019073
 ,-0.00061883,0.00010481,0.00003993,0.00006025,0.00046951,-0.00139373,-
 0.00067608,-0.00056571,0.00057092,0.00100544,-0.00172119,-0.00186045,-
 0.03375854,-0.07808426,0.03023420,-0.06516328,0.01453947,-0.00721625,0
 .01642272,0.07258864,0.00002728,-0.00001521,-0.00001229,0.00001362,-0.
 00000518,-0.00004246,0.00000264,0.00000493,-0.00000324,-0.00002778,-0.
 00002584,0.00002447,-0.00002234,-0.00000794,-0.00014891,0.00015963,-0.
 00009142,0.00053873,0.00096995,-0.00044393,-0.00086119,-0.00016318,0.0
 0003250,-0.00003574,0.00005922,-0.00010781,0.00000663,0.00003540,0.000
 02132,0.00007199,-0.00003341,-0.00003310,-0.00001687,0.00001843,0.0000
 2795,-0.00000884,0.00000485,0.00001755,0.00000218,-0.00001693,-0.00001
 163,-0.00003737,0.00002683,0.00000129,0.00004708,0.00006242,-0.0001720
 5,-0.00043475,-0.00019306,-0.00078779,0.00023409,0.00003822,0.00018716
 ,-0.00002417,-0.00136266,-0.00252435,0.00027022,0.00057111,0.00065971,
 -0.00039866,-0.00195471,-0.00572525,0.01312987,0.03032524,-0.01318019,
 0.02561748,-0.00722671,-0.00077913,-0.00653670,-0.02560938,0.01741614,
 -0.00001651,0.00000644,-0.00001115,-0.00000624,0.00000235,-0.00001228,
 -0.00000031,0.00000013,-0.00000032,-0.00003760,0.00001530,0.00001240,-
 0.00005566,0.00002252,-0.00018150,0.00053552,-0.00021365,0.00069784,0.
 00101446,-0.00041118,-0.00123222,-0.00030791,0.00012373,0.00000243,0.0
 0017730,-0.00006909,-0.00008539,0.00021414,-0.00008845,-0.00004398,-0.
 00019993,0.00008085,0.00001927,0.00014116,-0.00005548,-0.00016663,-0.0
 0000959,0.00000383,-0.00000610,-0.00018407,0.00007510,0.00004748,0.000
 15051,-0.00006117,0.00004891,0.00043669,-0.00016653,0.00074556,-0.0005
 8833,0.00022327,-0.00107764,0.00003470,-0.00001311,0.00000111,0.002645
 60,-0.00103630,0.00121858,0.00009963,-0.00003787,0.00012818,-0.0011721
 9,0.00047860,-0.00684265,-0.07438434,0.02894275,-0.44656228,-0.0104212
 7,0.00416046,-0.00872684,0.08311132,-0.03243986,0.45949070,-0.00041824
 ,0.00018321,0.00037261,-0.00014582,0.00007489,0.00047590,-0.00001542,0
 .00000631,0.00006185,0.00036492,-0.00015500,0.00013968,-0.00091575,0.0
 0022794,0.00144469,0.00166076,-0.00086304,-0.00280758,-0.00213018,0.00
 136357,0.00335681,-0.00345499,0.00325546,0.01339533,-0.00289419,-0.002
 05454,-0.00733103,-0.00953640,0.00387536,-0.00620473,0.00618776,-0.002
 22997,-0.00013737,-0.00491719,0.00152226,0.00487103,0.00033454,-0.0001
 1559,-0.00014050,0.00240208,-0.00108462,0.00195432,-0.00062801,0.00024
 037,-0.00148989,-0.05251885,0.02715056,0.02407468,-0.01538550,0.005039
 70,-0.02839983,0.00014257,-0.00084730,0.00074359,0.03336729,-0.0056845
 4,0.01777847,-0.00256530,0.00222820,0.00309639,-0.12225564,0.02321949,
 -0.02585189,-0.01844300,0.01080379,-0.06720887,0.00469446,-0.00340354,
 -0.00260708,-0.00495584,0.00346440,-0.00025247,0.45322209,0.00017625,-
 0.00004118,-0.00014635,0.00007121,0.00000947,-0.00018681,0.00000631,-0
 .00000159,-0.00002413,-0.00015391,0.00003821,-0.00005130,0.00019523,-0
 .00047114,-0.00057067,-0.00085426,-0.00015314,0.00114057,0.00135800,0.
 00076914,-0.00132280,0.00328575,0.00368771,-0.00522915,-0.00198908,-0.
 00736397,0.00277389,0.00371088,-0.00151767,0.00242993,-0.00207947,0.00
 170003,0.00006032,0.00149334,-0.00163491,-0.00188734,-0.00014989,0.000
 00614,0.00005614,-0.00106454,0.00012224,-0.00075382,0.00024043,-0.0001
 1477,0.00058336,0.02710641,0.00640639,-0.00933365,0.00507297,-0.004244
 23,0.01100436,-0.00084854,-0.00169908,-0.00028155,-0.00565080,0.020867
 62,-0.00705744,0.00223089,0.00226141,-0.00121915,0.02319547,-0.0717038
 7,0.00957036,0.01088301,0.00544478,0.02614762,-0.00341281,-0.00267725,
 0.00101790,0.00345683,0.00253787,0.00010059,-0.14926772,0.12744783,0.0
 0046258,-0.00018786,-0.00007750,0.00027439,-0.00010972,0.00015819,0.00
 003146,-0.00001297,-0.00002594,0.00087223,-0.00035515,-0.00023268,0.00
 034951,-0.00014098,0.00307162,-0.00547466,0.00220273,-0.01508099,-0.00
 247269,0.00100414,0.01240175,0.01450556,-0.00569912,-0.00377018,-0.008
 58978,0.00333270,-0.00101575,-0.00307170,0.00128289,0.00280010,0.00350
 808,-0.00143554,-0.00098158,-0.00344043,0.00136008,0.00407272,0.000297
 28,-0.00011097,0.00007280,0.00434140,-0.00177354,-0.00197071,-0.003194
 71,0.00129251,-0.00140263,0.00570485,-0.00215328,0.04431000,-0.0178176
 1,0.00688863,-0.02877540,-0.00016726,0.00006854,0.00095146,0.02630272,
 -0.01036774,-0.04410200,0.00472640,-0.00186172,-0.00182050,-0.01380449
 ,0.00495104,-0.34070333,-0.04878908,0.01886647,-0.04092855,0.00846106,
 -0.00332127,-0.00753761,-0.00130888,0.00052525,0.00253398,0.14487713,-
 0.05539313,0.59939233,0.00040875,-0.00017275,-0.00038000,0.00015013,-0
 .00006097,-0.00044521,0.00001341,-0.00000426,-0.00005523,-0.00037703,0
 .00014476,-0.00010873,0.00075314,-0.00030823,-0.00153430,-0.00134759,0
 .00057363,0.00333720,0.00188274,-0.00079434,-0.00406369,0.00178476,-0.
 00082042,-0.00494762,-0.00691341,0.00299652,0.00539455,0.00616658,-0.0
 0240212,0.00643239,-0.00794542,0.00302659,0.00133385,0.00814718,-0.002
 98657,-0.00402406,-0.00015215,0.00004871,0.00022723,-0.00218184,0.0008
 6789,-0.00123439,0.00064968,-0.00024665,0.00139975,-0.16693802,0.04014
 711,-0.01202111,0.04220259,-0.01661920,0.06334874,0.00112097,0.0014751
 7,-0.00666541,-0.03971660,0.01394236,0.00268757,-0.00250237,0.00097472
 ,0.00169196,-0.00679558,-0.00367623,-0.07689771,0.01452334,-0.00308091
 ,0.01598688,-0.00356516,0.00092077,0.00310366,0.00195693,0.00089261,-0
 .00090726,-0.23951531,0.06664348,-0.04130269,0.53500197,-0.00016472,0.
 00005441,0.00014820,-0.00005784,0.00002558,0.00017248,-0.00000393,0.00
 000468,0.00002135,0.00013736,-0.00007409,0.00004202,-0.00028822,0.0001
 3119,0.00059187,0.00056089,-0.00015088,-0.00127822,-0.00076847,0.00020
 477,0.00156192,-0.00083078,-0.00001612,0.00190825,0.00296758,-0.000412
 22,-0.00207509,-0.00224566,0.00125908,-0.00248598,0.00292297,-0.001464
 06,-0.00050503,-0.00297325,0.00147539,0.00152471,0.00007412,0.00002566
 ,-0.00008978,0.00081616,-0.00038083,0.00047759,-0.00023904,0.00011387,
 -0.00054322,0.04022856,-0.07967783,0.00449598,-0.01673233,0.00566869,-
 0.02481157,0.00148928,0.00437713,0.00258579,0.01396463,-0.00940179,-0.
 00102851,0.00095943,-0.00042051,-0.00065721,-0.00358012,-0.01426756,0.
 02999119,-0.00312338,0.00762328,-0.00626268,0.00088852,-0.00155803,-0.
 00118908,0.00091408,0.00394625,0.00034726,0.06663416,-0.09410220,0.015
 90328,-0.12313756,0.26587494,-0.00006014,0.00002379,-0.00007084,-0.000
 33164,0.00013229,-0.00071579,-0.00002627,0.00001104,-0.00004969,-0.001
 19420,0.00048270,-0.00000898,0.00088140,-0.00036788,-0.00288693,0.0012
 2961,-0.00049692,0.00917288,0.00219624,-0.00087962,-0.00863111,0.00047
 223,-0.00015650,-0.01168173,-0.00402423,0.00161120,0.01208048,0.017652
 76,-0.00721648,0.00819914,-0.01504100,0.00610356,0.00357017,0.01421980
 ,-0.00553303,-0.01737056,-0.00130993,0.00045919,0.00017200,-0.00794372
 ,0.00322453,-0.00001695,0.00363014,-0.00146008,0.00252748,0.03248613,-
 0.01285878,-0.13974765,0.01313578,-0.00524290,-0.04524521,-0.00175099,
 0.00066888,-0.00053166,0.01038015,-0.00402833,0.00324241,0.00012163,-0
 .00004836,0.00057465,-0.05562231,0.02166045,-0.02906038,0.01294664,-0.
 00505905,-0.00335728,-0.00473216,0.00187945,0.00442840,-0.00151216,0.0
 0057475,-0.00052364,-0.02572016,0.00989777,-0.13064927,0.12233276,-0.0
 4582400,0.87750203,-0.00023932,0.00010859,0.00020660,-0.00020895,0.000
 08526,0.00001172,-0.00001763,0.00000512,0.00001283,-0.00012114,0.00006
 364,0.00006667,-0.00020311,0.00007604,0.00012894,0.00091935,-0.0004036
 1,0.00008284,-0.00058386,0.00027571,0.00026353,-0.00083487,0.00056967,
 0.00003637,0.00164979,-0.00106991,-0.00076062,0.00211054,-0.00090419,0
 .00020010,-0.00137075,0.00187221,0.00567641,-0.00570137,-0.00013922,-0
 .00323056,-0.00181519,0.00063891,0.00054195,-0.00156875,0.00063499,0.0
 0071570,0.00058365,-0.00028988,-0.00008739,0.01734057,0.00126040,0.050
 99718,-0.00947638,0.00532424,-0.01151220,0.00008774,-0.00014181,0.0014
 0031,0.00856986,-0.00382250,-0.00122577,0.00067204,-0.00050267,-0.0004
 0558,-0.00422156,0.00520776,0.01400230,-0.00210443,0.00055403,-0.00480
 347,0.00079198,-0.00020002,-0.00046116,-0.00071263,-0.00009143,0.00015
 952,-0.01896284,0.01396507,-0.06822289,-0.11829915,0.01473940,-0.09932
 298,0.13085522,0.00010176,-0.00001496,-0.00008096,0.00007991,-0.000029
 85,-0.00000427,0.00000485,-0.00000694,-0.00000486,0.00006290,0.0000141
 3,-0.00002615,0.00006597,-0.00004666,-0.00004816,-0.00038202,0.0000805
 3,-0.00003573,0.00026365,-0.00000084,-0.00009606,0.00055663,0.00039393
 ,-0.00002613,-0.00106969,-0.00070089,0.00028493,-0.00082423,0.00028681
 ,-0.00001618,0.00179899,0.00266439,-0.00214801,-0.00007434,-0.00590627
 ,0.00119906,0.00063204,-0.00031549,-0.00018389,0.00058019,-0.00024645,
 -0.00027608,-0.00029205,-0.00004456,0.00003472,0.00118353,0.01970850,-
 0.02018015,0.00536268,0.00215605,0.00447828,-0.00014670,-0.00023043,-0
 .00055226,-0.00381724,0.00025872,0.00046503,-0.00050017,-0.00041359,0.
 00015918,0.00517791,0.00704796,-0.00544019,0.00055891,-0.00085678,0.00
 186460,-0.00018645,0.00036131,0.00017046,-0.00009801,-0.00092390,-0.00
 006017,0.01403016,0.01198846,0.02640270,0.01473831,-0.08529930,0.03727
 310,-0.03543968,0.05234929,0.00012285,-0.00005032,0.00003067,0.0003451
 4,-0.00013805,0.00061362,0.00002909,-0.00001165,0.00004216,0.00107831,
 -0.00043553,0.00000349,-0.00072006,0.00030053,0.00243492,-0.00131905,0
 .00053468,-0.00740740,-0.00151565,0.00060812,0.00735007,0.00082902,-0.
 00036013,0.00754335,0.00382902,-0.00151196,-0.00627652,-0.01490431,0.0
 0615674,-0.00884984,0.01893244,-0.00754329,-0.00549439,-0.01206443,0.0
 0469094,0.01002854,0.00153385,-0.00053993,-0.00043068,0.00768410,-0.00
 312560,-0.00026535,-0.00325017,0.00129702,-0.00220321,0.02084656,-0.00
 845570,-0.08886504,0.00705335,-0.00275401,0.00142198,-0.00042290,0.000
 16006,-0.00289442,0.00032690,-0.00013626,-0.00505944,-0.00018323,0.000
 07368,-0.00000616,0.00433823,-0.00168564,0.01731469,-0.00780468,0.0030
 3487,-0.00341074,0.00402524,-0.00160075,-0.00420568,0.00003991,-0.0000
 0571,0.00056257,-0.05395339,0.02081712,-0.04736071,-0.09258864,0.03468
 654,-0.55182667,0.11952410,-0.04471359,0.68883237,-0.06615450,0.026144
 34,0.02507290,0.01329735,-0.00940480,-0.01730536,-0.00061536,-0.000028
 44,0.00057452,-0.00307337,0.00366435,-0.00676563,-0.00601778,0.0038652
 8,0.00377346,0.00243113,-0.00029299,0.00072137,-0.00070115,0.00005433,
 0.00061550,-0.00018634,0.00010892,-0.00082816,-0.00005369,0.00006954,-
 0.00006460,-0.00077042,0.00010962,0.00051423,0.00025902,-0.00013526,-0
 .00014872,-0.00005663,0.00006550,0.00010404,-0.00007683,0.00004612,0.0
 0003406,0.00135465,-0.00145633,-0.00263268,0.00941716,-0.00584499,0.02
 675855,0.00001643,-0.00000873,-0.00006907,0.00001553,-0.00000571,0.000
 03234,0.00000035,0.00000097,-0.00000250,-0.00002157,0.00000590,-0.0000
 1642,0.00000190,0.00000102,-0.00000294,0.00008125,-0.00002813,0.000097
 42,-0.00010923,0.00003847,0.00002278,0.00009737,-0.00004237,-0.0000931
 7,-0.00000513,0.00000797,0.00000866,-0.00004064,0.00000697,-0.00010728
 ,0.00003950,-0.00000731,0.00016948,0.00001621,-0.00001983,-0.00015268,
 0.05085633,0.02614704,-0.01243451,-0.01103940,-0.00936032,-0.00601514,
 0.00700769,-0.00003019,-0.00067638,-0.00023115,0.00367505,0.00453064,0
 .00272973,0.00386365,0.00191474,-0.00153814,-0.00030023,0.00181849,-0.
 00030348,0.00005655,-0.00058937,-0.00024664,0.00010899,0.00004289,0.00
 033943,0.00007040,0.00009115,0.00002539,0.00010502,-0.00055209,-0.0002
 1267,-0.00013055,-0.00001092,0.00006076,0.00006454,0.00007714,-0.00004
 110,0.00004645,0.00001909,-0.00001274,-0.00145517,-0.00162492,0.001076
 87,-0.00589451,-0.00275044,-0.01087388,-0.00000891,-0.00000162,0.00002
 727,-0.00000562,0.00000305,-0.00001255,0.00000095,0.00000242,0.0000010
 1,0.00000562,-0.00000881,0.00000689,0.00000098,0.00000401,0.00000119,-
 0.00002827,0.00002015,-0.00003901,0.00003879,-0.00002668,-0.00000940,-
 0.00004222,0.00000847,0.00003690,0.00000779,0.00001137,-0.00000343,0.0
 0000661,-0.00002423,0.00004300,-0.00000759,0.00002121,-0.00006709,-0.0
 0002039,-0.00002608,0.00006068,-0.01691861,0.01616899,0.02785988,-0.01
 220687,-0.45479943,0.00616223,-0.00249025,-0.00755649,-0.00025083,0.00
 010315,0.00026167,-0.00097491,0.00038158,-0.00000389,0.00036997,-0.000
 16011,-0.00087728,-0.00015409,0.00005702,-0.00106774,0.00016542,-0.000
 06536,0.00046426,-0.00027259,0.00011051,0.00045755,0.00017637,-0.00006
 999,-0.00017828,0.00091894,-0.00038083,-0.00074646,-0.00069447,0.00030
 127,-0.00001017,0.00009992,-0.00004547,-0.00013109,-0.00000696,-0.0000
 0400,0.00009851,-0.00134226,0.00055294,0.00113411,-0.00165724,0.000668
 36,-0.00771651,-0.00006385,0.00002474,0.00003519,0.00001157,-0.0000044
 0,0.00001735,-0.00000204,0.00000080,0.00000338,-0.00004141,0.00001617,
 0.00002671,-0.00000288,0.00000115,0.00000590,0.00004433,-0.00001765,-0
 .00008433,-0.00006140,0.00002465,0.00004950,0.00009811,-0.00003936,-0.
 00011968,-0.00000404,0.00000142,-0.00000548,-0.00008830,0.00003455,0.0
 0010391,0.00009748,-0.00003811,-0.00007406,-0.00008346,0.00003281,0.00
 008164,-0.03031428,0.01321548,0.47062679,0.00001570,-0.00000941,-0.000
 02867,0.00002465,-0.00000977,0.00000498,0.00000220,0.00000045,-0.00000
 051,0.00000255,-0.00000529,-0.00000571,0.00000628,-0.00000614,-0.00008
 332,0.00006208,-0.00001170,0.00031247,0.00008834,-0.00003655,-0.000351
 25,-0.00013839,0.00003214,0.00018947,0.00015106,-0.00002496,-0.0003101
 9,-0.00036473,0.00016040,-0.00012359,0.00032116,-0.00016933,-0.0001433
 4,-0.00039056,0.00016261,0.00043683,0.00005645,-0.00000275,0.00000494,
 0.00012740,-0.00005435,-0.00003830,-0.00002344,0.00001132,0.00003253,-
 0.34829843,0.13237416,-0.11937348,0.00131846,-0.00335895,-0.00173990,0
 .00057032,-0.00110001,0.00019928,0.00506069,-0.00010641,0.00088568,0.0
 0043805,0.00053790,0.00028789,-0.00132313,0.00049050,0.00361137,0.0011
 6202,-0.00069631,-0.00039686,-0.00022804,0.00007275,0.00043413,-0.0000
 7914,0.00002175,-0.00018555,-0.00267737,0.00237254,0.00304951,-0.01855
 205,0.00685548,-0.01326284,0.00284499,-0.00234798,-0.00165892,-0.00000
 153,0.00000416,0.00001077,0.35982444,-0.00000887,-0.00000381,0.0000110
 2,-0.00000899,0.00000424,-0.00000186,0.00000052,0.00000320,0.00000017,
 -0.00000513,-0.00000891,0.00000226,-0.00000627,-0.00000716,0.00003237,
 -0.00001153,0.00003669,-0.00012262,-0.00003493,0.00001246,0.00013683,0
 .00003449,-0.00006546,-0.00007318,-0.00002726,0.00009533,0.00012271,0.
 00014858,-0.00003234,0.00004806,-0.00016410,-0.00004234,0.00005799,0.0
 0016726,-0.00003067,-0.00017281,-0.00000348,0.00005070,-0.00000229,-0.
 00005055,0.00001253,0.00001361,0.00001016,0.00000099,-0.00001305,0.132
 38860,-0.05976905,0.04627880,-0.00344048,-0.00594062,0.00067565,-0.001
 09907,-0.00182244,-0.00006991,-0.00009952,0.00481983,-0.00037087,0.000
 53426,0.00160955,-0.00011663,0.00048228,-0.00027434,-0.00141640,-0.000
 69794,-0.00035782,0.00016031,0.00007158,-0.00007211,-0.00016964,0.0000
 2362,-0.00002930,0.00007311,0.00237941,0.00246194,-0.00120102,0.006925
 18,-0.00358068,0.00523633,-0.00235575,-0.00224710,0.00064714,0.0000041
 9,0.00000738,-0.00000419,-0.13515626,0.06516929,0.00001723,-0.00000700
 ,-0.00001769,0.00000618,-0.00000261,-0.00002330,0.00000049,-0.00000019
 ,-0.00000275,-0.00002614,0.00001054,-0.00000799,0.00004382,-0.00001820
 ,-0.00008620,-0.00009109,0.00003667,0.00020321,0.00010916,-0.00004334,
 -0.00019376,0.00016229,-0.00006373,-0.00051703,-0.00038439,0.00015011,
 0.00065085,0.00047381,-0.00019195,0.00035419,-0.00038528,0.00015724,0.
 00003008,0.00026416,-0.00010031,-0.00025091,0.00000577,-0.00000533,0.0
 0001277,-0.00015135,0.00006050,-0.00008338,0.00005830,-0.00002338,0.00
 008385,-0.11879905,0.04605658,-0.12165912,-0.03193541,0.01245844,-0.00
 764028,0.00033311,-0.00012171,0.00073089,0.00212049,-0.00085499,-0.005
 71900,-0.00127298,0.00049209,-0.00013738,-0.00059221,0.00022851,-0.001
 47266,0.00042421,-0.00016262,0.00044083,-0.00016456,0.00006480,0.00005
 435,0.00009503,-0.00003744,-0.00003093,0.00555060,-0.00217719,-0.00343
 351,0.01980202,-0.00766992,0.02097877,-0.00391100,0.00152796,-0.001703
 80,0.00000421,-0.00000161,0.00000445,0.12824260,-0.04976191,0.11943545
 \\-0.00000002,-0.00000066,0.00001485,-0.00000089,-0.00000259,-0.000021
 80,-0.00000067,-0.00000064,0.00000339,-0.00000624,0.00000750,0.0000123
 8,0.00001108,-0.00000735,-0.00001379,-0.00002666,0.00000597,-0.0000012
 3,0.00000647,0.00000119,0.00000541,0.00002039,-0.00000782,0.00001073,-
 0.00001650,0.00000708,0.00002516,0.00000459,-0.00000883,-0.00003316,0.
 00002103,0.00000992,-0.00000407,-0.00000869,-0.00000243,0.00000801,-0.
 00000587,-0.00000329,-0.00000069,-0.00001664,0.00000437,0.00001012,0.0
 0002078,-0.00000322,0.00000521,0.00000272,0.00000298,-0.00000353,0.000
 00069,-0.00000358,0.00000947,-0.00000025,0.00000170,-0.00000253,-0.000
 01003,0.00000438,0.00000171,0.00000498,0.00000039,-0.00000215,-0.00000
 246,0.00000382,-0.00000808,0.00001113,-0.00000462,0.00000008,-0.000004
 83,0.00000221,0.00000282,-0.00000248,-0.00000103,-0.00000099,0.0000209
 2,-0.00001135,-0.00001705,-0.00001883,0.00000365,-0.00000131,-0.000003
 69,0.00000464,0.00000449,-0.00000016,0.00000168,-0.00000178,0.00000013
 ,-0.00000405,-0.00000167\\\@
 The archive entry for this job was punched.


 YOU KNOW YOU'RE A TEACHER WHEN YOU SAY 2, WRITE 3, AND MEAN 4.
 -- RONALD ANSTROM, HIGH SCHOOL TEACHER, UNDERWOOD, N.D. 1974
 Job cpu time:       0 days  9 hours 35 minutes 55.1 seconds.
 Elapsed time:       0 days  0 hours 36 minutes 49.1 seconds.
 File lengths (MBytes):  RWF=    890 Int=      0 D2E=      0 Chk=     28 Scr=      2
 Normal termination of Gaussian 16 at Thu Apr  9 16:17:18 2026.
