 Entering Gaussian System, Link 0=g16
 Initial command:
 /software/gaussian//g16/l1.exe "/software/scratch/Gau-1697.inp" -scrdir="/software/scratch/"
 Entering Link 1 = /software/gaussian//g16/l1.exe PID=      1706.
  
 Copyright (c) 1988-2017, Gaussian, Inc.  All Rights Reserved.
  
 This is part of the Gaussian(R) 16 program.  It is based on
 the Gaussian(R) 09 system (copyright 2009, Gaussian, Inc.),
 the Gaussian(R) 03 system (copyright 2003, Gaussian, Inc.),
 the Gaussian(R) 98 system (copyright 1998, Gaussian, Inc.),
 the Gaussian(R) 94 system (copyright 1995, Gaussian, Inc.),
 the Gaussian 92(TM) system (copyright 1992, Gaussian, Inc.),
 the Gaussian 90(TM) system (copyright 1990, Gaussian, Inc.),
 the Gaussian 88(TM) system (copyright 1988, Gaussian, Inc.),
 the Gaussian 86(TM) system (copyright 1986, Carnegie Mellon
 University), and the Gaussian 82(TM) system (copyright 1983,
 Carnegie Mellon University). Gaussian is a federally registered
 trademark of Gaussian, Inc.
  
 This software contains proprietary and confidential information,
 including trade secrets, belonging to Gaussian, Inc.
  
 This software is provided under written license and may be
 used, copied, transmitted, or stored only in accord with that
 written license.
  
 The following legend is applicable only to US Government
 contracts under FAR:
  
                    RESTRICTED RIGHTS LEGEND
  
 Use, reproduction and disclosure by the US Government is
 subject to restrictions as set forth in subparagraphs (a)
 and (c) of the Commercial Computer Software - Restricted
 Rights clause in FAR 52.227-19.
  
 Gaussian, Inc.
 340 Quinnipiac St., Bldg. 40, Wallingford CT 06492
  
  
 ---------------------------------------------------------------
 Warning -- This program may not be used in any manner that
 competes with the business of Gaussian, Inc. or will provide
 assistance to any competitor of Gaussian, Inc.  The licensee
 of this program is prohibited from giving any competitor of
 Gaussian, Inc. access to this program.  By using this program,
 the user acknowledges that Gaussian, Inc. is engaged in the
 business of creating and licensing software in the field of
 computational chemistry and represents and warrants to the
 licensee that it is not a competitor of Gaussian, Inc. and that
 it will not use this program in any manner prohibited above.
 ---------------------------------------------------------------
  

 Cite this work as:
 Gaussian 16, Revision B.01,
 M. J. Frisch, G. W. Trucks, H. B. Schlegel, G. E. Scuseria, 
 M. A. Robb, J. R. Cheeseman, G. Scalmani, V. Barone, 
 G. A. Petersson, H. Nakatsuji, X. Li, M. Caricato, A. V. Marenich, 
 J. Bloino, B. G. Janesko, R. Gomperts, B. Mennucci, H. P. Hratchian, 
 J. V. Ortiz, A. F. Izmaylov, J. L. Sonnenberg, D. Williams-Young, 
 F. Ding, F. Lipparini, F. Egidi, J. Goings, B. Peng, A. Petrone, 
 T. Henderson, D. Ranasinghe, V. G. Zakrzewski, J. Gao, N. Rega, 
 G. Zheng, W. Liang, M. Hada, M. Ehara, K. Toyota, R. Fukuda, 
 J. Hasegawa, M. Ishida, T. Nakajima, Y. Honda, O. Kitao, H. Nakai, 
 T. Vreven, K. Throssell, J. A. Montgomery, Jr., J. E. Peralta, 
 F. Ogliaro, M. J. Bearpark, J. J. Heyd, E. N. Brothers, K. N. Kudin, 
 V. N. Staroverov, T. A. Keith, R. Kobayashi, J. Normand, 
 K. Raghavachari, A. P. Rendell, J. C. Burant, S. S. Iyengar, 
 J. Tomasi, M. Cossi, J. M. Millam, M. Klene, C. Adamo, R. Cammi, 
 J. W. Ochterski, R. L. Martin, K. Morokuma, O. Farkas, 
 J. B. Foresman, and D. J. Fox, Gaussian, Inc., Wallingford CT, 2016.
 
 ******************************************
 Gaussian 16:  EM64L-G16RevB.01 20-Dec-2017
                 1-Jul-2023 
 ******************************************
 %mem=1600mb
 %NProcShared=4
 Will use up to    4 processors via shared memory.
 %chk=acetone-formaldehyde.chk
 ----------------------------------------------------------------
 # opt freq B3LYP/6-311+G(2d,p) scf=xqc out=wfn geom=connectivity
 ----------------------------------------------------------------
 1/18=20,19=15,26=3,38=1,57=2/1,3;
 2/9=110,12=2,17=6,18=5,40=1/2;
 3/5=4,6=6,7=112,11=2,25=1,30=1,71=1,74=-5/1,2,3;
 4//1;
 5/5=2,8=3,13=1,38=5/2,8;
 6/7=2,8=2,9=2,10=2,28=1/1;
 7//1,2,3,16;
 1/18=20,19=15,26=3/3(2);
 2/9=110/2;
 99/6=100/99;
 2/9=110/2;
 3/5=4,6=6,7=112,11=2,25=1,30=1,71=1,74=-5/1,2,3;
 4/5=5,16=3,69=1/1;
 5/5=2,8=3,13=1,38=5/2,8;
 7//1,2,3,16;
 1/18=20,19=15,26=3/3(-5);
 2/9=110/2;
 6/7=2,8=2,9=2,10=2,19=2,28=1/1;
 99/6=100,9=1/99;
 -------------------
 Title Card Required
 -------------------
 Symbolic Z-matrix:
 Charge =  0 Multiplicity = 1
 O                    -0.17715  -0.95302   0.10057 
 C                    -1.00955  -0.06677   0.03114 
 C                    -0.6389    1.38027   0.07543 
 H                     0.43541   1.53162  -0.16014 
 H                    -1.21595   1.99709  -0.6224 
 H                    -0.78453   1.79974   1.08113 
 C                    -2.46997  -0.38471  -0.09945 
 H                    -3.08831   0.19498   0.59713 
 H                    -2.83417  -0.16617  -1.11334 
 H                    -2.66676  -1.45165   0.08704 
 C                     2.16372  -0.63732   0.02563 
 H                     2.03137  -1.3195   -0.82172 
 H                     2.0869   -1.08128   1.02435 
 O                     2.39768   0.54631  -0.13413 
 
 Add virtual bond connecting atoms O14        and H4         Dist= 4.15D+00.

 GradGradGradGradGradGradGradGradGradGradGradGradGradGradGradGradGradGrad
 Berny optimization.
 Initialization pass.
                           ----------------------------
                           !    Initial Parameters    !
                           ! (Angstroms and Degrees)  !
 --------------------------                            --------------------------
 ! Name  Definition              Value          Derivative Info.                !
 --------------------------------------------------------------------------------
 ! R1    R(1,2)                  1.2178         estimate D2E/DX2                !
 ! R2    R(2,3)                  1.4944         estimate D2E/DX2                !
 ! R3    R(2,7)                  1.5003         estimate D2E/DX2                !
 ! R4    R(3,4)                  1.1102         estimate D2E/DX2                !
 ! R5    R(3,5)                  1.0956         estimate D2E/DX2                !
 ! R6    R(3,6)                  1.0994         estimate D2E/DX2                !
 ! R7    R(4,14)                 2.1959         estimate D2E/DX2                !
 ! R8    R(7,8)                  1.0971         estimate D2E/DX2                !
 ! R9    R(7,9)                  1.0993         estimate D2E/DX2                !
 ! R10   R(7,10)                 1.1008         estimate D2E/DX2                !
 ! R11   R(11,12)                1.0958         estimate D2E/DX2                !
 ! R12   R(11,13)                1.0957         estimate D2E/DX2                !
 ! R13   R(11,14)                1.2171         estimate D2E/DX2                !
 ! A1    A(1,2,3)              122.2382         estimate D2E/DX2                !
 ! A2    A(1,2,7)              121.0692         estimate D2E/DX2                !
 ! A3    A(3,2,7)              116.6923         estimate D2E/DX2                !
 ! A4    A(2,3,4)              111.4513         estimate D2E/DX2                !
 ! A5    A(2,3,5)              113.305          estimate D2E/DX2                !
 ! A6    A(2,3,6)              111.3291         estimate D2E/DX2                !
 ! A7    A(4,3,5)              107.3235         estimate D2E/DX2                !
 ! A8    A(4,3,6)              105.6807         estimate D2E/DX2                !
 ! A9    A(5,3,6)              107.3425         estimate D2E/DX2                !
 ! A10   A(3,4,14)             143.2294         estimate D2E/DX2                !
 ! A11   A(2,7,8)              112.4201         estimate D2E/DX2                !
 ! A12   A(2,7,9)              111.1407         estimate D2E/DX2                !
 ! A13   A(2,7,10)             111.3858         estimate D2E/DX2                !
 ! A14   A(8,7,9)              107.0879         estimate D2E/DX2                !
 ! A15   A(8,7,10)             107.6856         estimate D2E/DX2                !
 ! A16   A(9,7,10)             106.8403         estimate D2E/DX2                !
 ! A17   A(12,11,13)           116.3676         estimate D2E/DX2                !
 ! A18   A(12,11,14)           121.8112         estimate D2E/DX2                !
 ! A19   A(13,11,14)           121.8166         estimate D2E/DX2                !
 ! A20   A(4,14,11)            105.4354         estimate D2E/DX2                !
 ! D1    D(1,2,3,4)             18.8118         estimate D2E/DX2                !
 ! D2    D(1,2,3,5)            139.984          estimate D2E/DX2                !
 ! D3    D(1,2,3,6)            -98.9094         estimate D2E/DX2                !
 ! D4    D(7,2,3,4)           -161.3939         estimate D2E/DX2                !
 ! D5    D(7,2,3,5)            -40.2217         estimate D2E/DX2                !
 ! D6    D(7,2,3,6)             80.8849         estimate D2E/DX2                !
 ! D7    D(1,2,7,8)            132.6761         estimate D2E/DX2                !
 ! D8    D(1,2,7,9)           -107.3014         estimate D2E/DX2                !
 ! D9    D(1,2,7,10)            11.7116         estimate D2E/DX2                !
 ! D10   D(3,2,7,8)            -47.1208         estimate D2E/DX2                !
 ! D11   D(3,2,7,9)             72.9017         estimate D2E/DX2                !
 ! D12   D(3,2,7,10)          -168.0853         estimate D2E/DX2                !
 ! D13   D(2,3,4,14)           -24.8784         estimate D2E/DX2                !
 ! D14   D(5,3,4,14)          -149.4774         estimate D2E/DX2                !
 ! D15   D(6,3,4,14)            96.1997         estimate D2E/DX2                !
 ! D16   D(3,4,14,11)           14.0978         estimate D2E/DX2                !
 ! D17   D(12,11,13,14)        179.2316         estimate D2E/DX2                !
 ! D18   D(12,11,14,4)          91.535          estimate D2E/DX2                !
 ! D19   D(13,11,14,4)         -89.2751         estimate D2E/DX2                !
 --------------------------------------------------------------------------------
 Trust Radius=3.00D-01 FncErr=1.00D-07 GrdErr=1.00D-06 EigMax=2.50D+02 EigMin=1.00D-04
 Number of steps in this run=     62 maximum allowed number of steps=    100.
 GradGradGradGradGradGradGradGradGradGradGradGradGradGradGradGradGradGrad

                          Input orientation:                          
 ---------------------------------------------------------------------
 Center     Atomic      Atomic             Coordinates (Angstroms)
 Number     Number       Type             X           Y           Z
 ---------------------------------------------------------------------
      1          8           0       -0.177150   -0.953021    0.100570
      2          6           0       -1.009547   -0.066771    0.031137
      3          6           0       -0.638902    1.380274    0.075431
      4          1           0        0.435412    1.531615   -0.160137
      5          1           0       -1.215947    1.997087   -0.622396
      6          1           0       -0.784526    1.799742    1.081125
      7          6           0       -2.469967   -0.384707   -0.099453
      8          1           0       -3.088311    0.194979    0.597128
      9          1           0       -2.834173   -0.166168   -1.113340
     10          1           0       -2.666756   -1.451648    0.087038
     11          6           0        2.163719   -0.637324    0.025629
     12          1           0        2.031368   -1.319495   -0.821721
     13          1           0        2.086899   -1.081279    1.024354
     14          8           0        2.397677    0.546313   -0.134134
 ---------------------------------------------------------------------
                    Distance matrix (angstroms):
                    1          2          3          4          5
     1  O    0.000000
     2  C    1.217844   0.000000
     3  C    2.378679   1.494416   0.000000
     4  H    2.572278   2.163176   1.110201   0.000000
     5  H    3.210127   2.174676   1.095628   1.776889   0.000000
     6  H    2.984644   2.153365   1.099354   1.760929   1.768348
     7  C    2.370654   1.500321   2.549224   3.480977   2.742076
     8  H    3.168491   2.170281   2.770685   3.844043   2.870641
     9  H    3.025308   2.156146   2.936643   3.805424   2.745788
    10  H    2.539084   2.160405   3.483118   4.310963   3.808138
    11  C    2.363250   3.224155   3.453674   2.779541   4.333844
    12  H    2.421255   3.397624   3.901791   3.333706   4.645912
    13  H    2.448621   3.406418   3.793374   3.310233   4.805925
    14  O    2.988783   3.465885   3.155982   2.195901   3.924465
                    6          7          8          9         10
     6  H    0.000000
     7  C    3.001049   0.000000
     8  H    2.849025   1.097092   0.000000
     9  H    3.589085   1.099260   1.766554   0.000000
    10  H    3.886198   1.100849   1.774621   1.766747   0.000000
    11  C    3.968061   4.642252   5.348192   5.147637   4.899019
    12  H    4.612995   4.653764   5.524299   5.008862   4.787032
    13  H    4.067995   4.744806   5.347350   5.442804   4.859318
    14  O    3.629649   4.956002   5.545651   5.370170   5.448784
                   11         12         13         14
    11  C    0.000000
    12  H    1.095845   0.000000
    13  H    1.095650   1.862209   0.000000
    14  O    1.217069   2.021929   2.021814   0.000000
 Stoichiometry    C4H8O2
 Framework group  C1[X(C4H8O2)]
 Deg. of freedom    36
 Full point group                 C1      NOp   1
 Largest Abelian subgroup         C1      NOp   1
 Largest concise Abelian subgroup C1      NOp   1
                         Standard orientation:                         
 ---------------------------------------------------------------------
 Center     Atomic      Atomic             Coordinates (Angstroms)
 Number     Number       Type             X           Y           Z
 ---------------------------------------------------------------------
      1          8           0       -0.177150   -0.953021    0.100570
      2          6           0       -1.009547   -0.066771    0.031137
      3          6           0       -0.638902    1.380274    0.075431
      4          1           0        0.435412    1.531615   -0.160137
      5          1           0       -1.215947    1.997087   -0.622396
      6          1           0       -0.784526    1.799742    1.081125
      7          6           0       -2.469967   -0.384707   -0.099453
      8          1           0       -3.088311    0.194979    0.597128
      9          1           0       -2.834173   -0.166168   -1.113340
     10          1           0       -2.666756   -1.451648    0.087038
     11          6           0        2.163719   -0.637324    0.025629
     12          1           0        2.031368   -1.319495   -0.821721
     13          1           0        2.086899   -1.081279    1.024354
     14          8           0        2.397677    0.546313   -0.134134
 ---------------------------------------------------------------------
 Rotational constants (GHZ):           7.3119534           1.8050387           1.4955761
 Standard basis: 6-311+G(2d,p) (5D, 7F)
 There are   222 symmetry adapted cartesian basis functions of A   symmetry.
 There are   210 symmetry adapted basis functions of A   symmetry.
   210 basis functions,   316 primitive gaussians,   222 cartesian basis functions
    24 alpha electrons       24 beta electrons
       nuclear repulsion energy       229.5535427974 Hartrees.
 NAtoms=   14 NActive=   14 NUniq=   14 SFac= 1.00D+00 NAtFMM=   60 NAOKFM=F Big=F
 Integral buffers will be    131072 words long.
 Raffenetti 2 integral format.
 Two-electron integral symmetry is turned on.
 One-electron integrals computed using PRISM.
 NBasis=   210 RedAO= T EigKep=  4.36D-05  NBF=   210
 NBsUse=   210 1.00D-06 EigRej= -1.00D+00 NBFU=   210
 ExpMin= 4.38D-02 ExpMax= 8.59D+03 ExpMxC= 1.30D+03 IAcc=3 IRadAn=         5 AccDes= 0.00D+00
 Harris functional with IExCor=  402 and IRadAn=       5 diagonalized for initial guess.
 HarFok:  IExCor=  402 AccDes= 0.00D+00 IRadAn=         5 IDoV= 1 UseB2=F ITyADJ=14
 ICtDFT=  3500011 ScaDFX=  1.000000  1.000000  1.000000  1.000000
 FoFCou: FMM=F IPFlag=           0 FMFlag=      100000 FMFlg1=           0
         NFxFlg=           0 DoJE=T BraDBF=F KetDBF=T FulRan=T
         wScrn=  0.000000 ICntrl=       500 IOpCl=  0 I1Cent=   200000004 NGrid=           0
         NMat0=    1 NMatS0=      1 NMatT0=    0 NMatD0=    1 NMtDS0=    0 NMtDT0=    0
 Petite list used in FoFCou.
 Requested convergence on RMS density matrix=1.00D-08 within  32 cycles.
 Requested convergence on MAX density matrix=1.00D-06.
 Requested convergence on             energy=1.00D-06.
 No special actions if energy rises.
 SCF Done:  E(RB3LYP) =  -307.765683139     A.U. after   12 cycles
            NFock= 12  Conv=0.35D-08     -V/T= 2.0039
 QCSCF skips out because SCF is already converged.

 **********************************************************************

            Population analysis using the SCF Density.

 **********************************************************************

 Orbital symmetries:
       Occupied  (A) (A) (A) (A) (A) (A) (A) (A) (A) (A) (A) (A)
                 (A) (A) (A) (A) (A) (A) (A) (A) (A) (A) (A) (A)
       Virtual   (A) (A) (A) (A) (A) (A) (A) (A) (A) (A) (A) (A)
                 (A) (A) (A) (A) (A) (A) (A) (A) (A) (A) (A) (A)
                 (A) (A) (A) (A) (A) (A) (A) (A) (A) (A) (A) (A)
                 (A) (A) (A) (A) (A) (A) (A) (A) (A) (A) (A) (A)
                 (A) (A) (A) (A) (A) (A) (A) (A) (A) (A) (A) (A)
                 (A) (A) (A) (A) (A) (A) (A) (A) (A) (A) (A) (A)
                 (A) (A) (A) (A) (A) (A) (A) (A) (A) (A) (A) (A)
                 (A) (A) (A) (A) (A) (A) (A) (A) (A) (A) (A) (A)
                 (A) (A) (A) (A) (A) (A) (A) (A) (A) (A) (A) (A)
                 (A) (A) (A) (A) (A) (A) (A) (A) (A) (A) (A) (A)
                 (A) (A) (A) (A) (A) (A) (A) (A) (A) (A) (A) (A)
                 (A) (A) (A) (A) (A) (A) (A) (A) (A) (A) (A) (A)
                 (A) (A) (A) (A) (A) (A) (A) (A) (A) (A) (A) (A)
                 (A) (A) (A) (A) (A) (A) (A) (A) (A) (A) (A) (A)
                 (A) (A) (A) (A) (A) (A) (A) (A) (A) (A) (A) (A)
                 (A) (A) (A) (A) (A) (A)
 The electronic state is 1-A.
 Alpha  occ. eigenvalues --  -19.13291 -19.11242 -10.28091 -10.24994 -10.18752
 Alpha  occ. eigenvalues --  -10.17774  -1.06629  -1.03585  -0.78576  -0.72236
 Alpha  occ. eigenvalues --   -0.62315  -0.55285  -0.48153  -0.48115  -0.47177
 Alpha  occ. eigenvalues --   -0.46990  -0.43780  -0.41574  -0.41327  -0.38976
 Alpha  occ. eigenvalues --   -0.37000  -0.36264  -0.27300  -0.25248
 Alpha virt. eigenvalues --   -0.04267  -0.02381  -0.00481   0.02648   0.02800
 Alpha virt. eigenvalues --    0.03660   0.05152   0.05392   0.05988   0.06100
 Alpha virt. eigenvalues --    0.07486   0.08142   0.09604   0.10867   0.11366
 Alpha virt. eigenvalues --    0.12146   0.13479   0.14603   0.14794   0.17511
 Alpha virt. eigenvalues --    0.19450   0.20026   0.21069   0.21581   0.22150
 Alpha virt. eigenvalues --    0.23048   0.24879   0.25180   0.25995   0.27730
 Alpha virt. eigenvalues --    0.29000   0.29257   0.29690   0.31123   0.35491
 Alpha virt. eigenvalues --    0.37470   0.38813   0.39885   0.40794   0.42481
 Alpha virt. eigenvalues --    0.43955   0.46459   0.48380   0.48755   0.49765
 Alpha virt. eigenvalues --    0.51821   0.54142   0.55237   0.56765   0.58748
 Alpha virt. eigenvalues --    0.60108   0.61784   0.63111   0.63455   0.64138
 Alpha virt. eigenvalues --    0.65498   0.66757   0.68747   0.70833   0.72494
 Alpha virt. eigenvalues --    0.73058   0.79973   0.81409   0.84307   0.87458
 Alpha virt. eigenvalues --    0.90170   0.93063   0.95260   0.97536   0.98261
 Alpha virt. eigenvalues --    1.00425   1.02193   1.03837   1.06347   1.08612
 Alpha virt. eigenvalues --    1.09948   1.10569   1.16402   1.19306   1.20646
 Alpha virt. eigenvalues --    1.21989   1.24090   1.24950   1.27036   1.30534
 Alpha virt. eigenvalues --    1.38523   1.42828   1.44912   1.45364   1.47145
 Alpha virt. eigenvalues --    1.49544   1.54183   1.54936   1.63176   1.65871
 Alpha virt. eigenvalues --    1.68707   1.70302   1.77944   1.80373   1.81649
 Alpha virt. eigenvalues --    1.85909   1.87917   1.92444   1.94547   1.98680
 Alpha virt. eigenvalues --    1.99652   2.02147   2.16337   2.16784   2.19249
 Alpha virt. eigenvalues --    2.20230   2.20523   2.22028   2.25725   2.32046
 Alpha virt. eigenvalues --    2.32465   2.34146   2.35970   2.36898   2.39642
 Alpha virt. eigenvalues --    2.41679   2.50312   2.54830   2.55603   2.61156
 Alpha virt. eigenvalues --    2.65432   2.66381   2.69757   2.72251   2.78649
 Alpha virt. eigenvalues --    2.82324   2.83517   2.89082   2.95641   3.02286
 Alpha virt. eigenvalues --    3.07687   3.14348   3.18091   3.19350   3.23709
 Alpha virt. eigenvalues --    3.24874   3.28161   3.31976   3.33299   3.37593
 Alpha virt. eigenvalues --    3.37882   3.43930   3.45842   3.49078   3.50974
 Alpha virt. eigenvalues --    3.55207   3.60215   3.63869   3.69352   3.77933
 Alpha virt. eigenvalues --    3.83323   3.92585   4.04258   4.16402   4.19182
 Alpha virt. eigenvalues --    4.21797   4.23130   4.27886   4.53838   5.04820
 Alpha virt. eigenvalues --    5.08668   5.11162   5.33384   5.94978   5.98797
 Alpha virt. eigenvalues --    6.77332   6.84960   6.86038   6.91957   7.02289
 Alpha virt. eigenvalues --    7.03807   7.14598   7.20611   7.21581   7.26208
 Alpha virt. eigenvalues --   23.91025  23.95710  24.02732  24.06853  49.91856
 Alpha virt. eigenvalues --   49.99203
          Condensed to atoms (all electrons):
               1          2          3          4          5          6
     1  O    8.253177   0.451320  -0.069803  -0.000751   0.003597  -0.000270
     2  C    0.451320   4.831761   0.219310  -0.046852  -0.052781   0.003168
     3  C   -0.069803   0.219310   5.272569   0.440774   0.388706   0.391170
     4  H   -0.000751  -0.046852   0.440774   0.465732  -0.026688  -0.019573
     5  H    0.003597  -0.052781   0.388706  -0.026688   0.567086  -0.030428
     6  H   -0.000270   0.003168   0.391170  -0.019573  -0.030428   0.541114
     7  C   -0.154958   0.148538  -0.217773  -0.005098   0.028158  -0.032879
     8  H    0.004059  -0.024361   0.013975   0.000402  -0.001977   0.000305
     9  H    0.001930  -0.001969  -0.005946  -0.000131  -0.000015   0.000363
    10  H    0.002758  -0.070562  -0.000579  -0.000213   0.000338  -0.000204
    11  C   -0.015092  -0.013108  -0.010419  -0.005113   0.000262   0.001716
    12  H   -0.012971  -0.009378   0.006943  -0.000296   0.000109  -0.000158
    13  H   -0.018775   0.014933  -0.011219   0.000617  -0.000103   0.000335
    14  O   -0.013573  -0.047258   0.025927   0.002366   0.000248  -0.000653
               7          8          9         10         11         12
     1  O   -0.154958   0.004059   0.001930   0.002758  -0.015092  -0.012971
     2  C    0.148538  -0.024361  -0.001969  -0.070562  -0.013108  -0.009378
     3  C   -0.217773   0.013975  -0.005946  -0.000579  -0.010419   0.006943
     4  H   -0.005098   0.000402  -0.000131  -0.000213  -0.005113  -0.000296
     5  H    0.028158  -0.001977  -0.000015   0.000338   0.000262   0.000109
     6  H   -0.032879   0.000305   0.000363  -0.000204   0.001716  -0.000158
     7  C    5.601404   0.373046   0.370397   0.452131   0.005746   0.000225
     8  H    0.373046   0.555346  -0.028319  -0.027459   0.000332  -0.000006
     9  H    0.370397  -0.028319   0.539968  -0.023825   0.000472   0.000022
    10  H    0.452131  -0.027459  -0.023825   0.521558  -0.000238  -0.000009
    11  C    0.005746   0.000332   0.000472  -0.000238   4.662362   0.416927
    12  H    0.000225  -0.000006   0.000022  -0.000009   0.416927   0.650745
    13  H   -0.000931   0.000024   0.000000   0.000008   0.418908  -0.087500
    14  O   -0.000828   0.000009   0.000038   0.000005   0.412254  -0.066420
              13         14
     1  O   -0.018775  -0.013573
     2  C    0.014933  -0.047258
     3  C   -0.011219   0.025927
     4  H    0.000617   0.002366
     5  H   -0.000103   0.000248
     6  H    0.000335  -0.000653
     7  C   -0.000931  -0.000828
     8  H    0.000024   0.000009
     9  H    0.000000   0.000038
    10  H    0.000008   0.000005
    11  C    0.418908   0.412254
    12  H   -0.087500  -0.066420
    13  H    0.649621  -0.066376
    14  O   -0.066376   8.129496
 Mulliken charges:
               1
     1  O   -0.430647
     2  C    0.597240
     3  C   -0.443635
     4  H    0.194823
     5  H    0.123488
     6  H    0.145993
     7  C   -0.567177
     8  H    0.134624
     9  H    0.147016
    10  H    0.146294
    11  C    0.124990
    12  H    0.101769
    13  H    0.100458
    14  O   -0.375235
 Sum of Mulliken charges =   0.00000
 Mulliken charges with hydrogens summed into heavy atoms:
               1
     1  O   -0.430647
     2  C    0.597240
     3  C    0.020670
     7  C   -0.139244
    11  C    0.327217
    14  O   -0.375235
 Electronic spatial extent (au):  <R**2>=            794.4384
 Charge=              0.0000 electrons
 Dipole moment (field-independent basis, Debye):
    X=             -3.3531    Y=             -0.1891    Z=              0.1909  Tot=              3.3639
 Quadrupole moment (field-independent basis, Debye-Ang):
   XX=            -37.2804   YY=            -37.9376   ZZ=            -36.1528
   XY=             -5.7562   XZ=              1.0095   YZ=              0.5461
 Traceless Quadrupole moment (field-independent basis, Debye-Ang):
   XX=             -0.1568   YY=             -0.8140   ZZ=              0.9708
   XY=             -5.7562   XZ=              1.0095   YZ=              0.5461
 Octapole moment (field-independent basis, Debye-Ang**2):
  XXX=            -14.6712  YYY=              0.9468  ZZZ=              0.4007  XYY=              1.3513
  XXY=            -15.3437  XXZ=              1.4455  XZZ=              0.2627  YZZ=             -0.5217
  YYZ=              0.0342  XYZ=              0.2053
 Hexadecapole moment (field-independent basis, Debye-Ang**3):
 XXXX=           -783.1568 YYYY=           -222.4978 ZZZZ=            -58.3637 XXXY=            -24.9107
 XXXZ=              4.4273 YYYX=              1.2138 YYYZ=             -0.5287 ZZZX=              1.6540
 ZZZY=              1.0272 XXYY=           -162.6696 XXZZ=           -133.8328 YYZZ=            -45.1316
 XXYZ=              0.6152 YYXZ=             -0.9139 ZZXY=             -3.2772
 N-N= 2.295535427974D+02 E-N=-1.179369608779D+03  KE= 3.065620621665D+02
 Calling FoFJK, ICntrl=      2127 FMM=F ISym2X=0 I1Cent= 0 IOpClX= 0 NMat=1 NMatS=1 NMatT=0.
 ***** Axes restored to original set *****
 -------------------------------------------------------------------
 Center     Atomic                   Forces (Hartrees/Bohr)
 Number     Number              X              Y              Z
 -------------------------------------------------------------------
      1        8          -0.009396361   -0.000873940    0.000708086
      2        6          -0.000716172   -0.002315873    0.000054462
      3        6           0.021739135    0.018625493   -0.004387372
      4        1          -0.012943649   -0.004635343    0.003261970
      5        1          -0.003651123   -0.003947584    0.002572790
      6        1          -0.003593947   -0.003841003   -0.001755873
      7        6          -0.014581619   -0.013487172    0.001004971
      8        1           0.003582995    0.001978104   -0.002259886
      9        1           0.003260557    0.002616024    0.002427918
     10        1           0.004376424    0.005767241   -0.001005552
     11        6           0.004245814    0.020672534   -0.002891217
     12        1           0.002318926   -0.003102039   -0.002492694
     13        1           0.002381971   -0.002466120    0.003198783
     14        8           0.002977051   -0.014990320    0.001563614
 -------------------------------------------------------------------
 Cartesian Forces:  Max     0.021739135 RMS     0.007602136

 GradGradGradGradGradGradGradGradGradGradGradGradGradGradGradGradGradGrad
 Berny optimization.
 FormGI is forming the generalized inverse of G from B-inverse, IUseBI=4.
 Internal  Forces:  Max     0.041089134 RMS     0.008864242
 Search for a local minimum.
 Step number   1 out of a maximum of   62
 All quantities printed in internal units (Hartrees-Bohrs-Radians)
 Mixed Optimization -- RFO/linear search
 Second derivative matrix not updated -- first step.
 ITU=  0
     Eigenvalues ---    0.00230   0.00230   0.00762   0.00801   0.00840
     Eigenvalues ---    0.01617   0.03166   0.04112   0.05897   0.06640
     Eigenvalues ---    0.07013   0.07197   0.11633   0.13991   0.15999
     Eigenvalues ---    0.16000   0.16000   0.16000   0.16000   0.16000
     Eigenvalues ---    0.16000   0.25000   0.25000   0.25000   0.32344
     Eigenvalues ---    0.32579   0.32970   0.33588   0.33754   0.33764
     Eigenvalues ---    0.34006   0.34146   0.34168   0.34170   0.96345
     Eigenvalues ---    0.96694
 RFO step:  Lambda=-2.10602910D-02 EMin= 2.30000000D-03
 Linear search not attempted -- first point.
 Maximum step size (   0.300) exceeded in Quadratic search.
    -- Step size scaled by   0.863
 Iteration  1 RMS(Cart)=  0.31996242 RMS(Int)=  0.01356914
 Iteration  2 RMS(Cart)=  0.04990639 RMS(Int)=  0.00116787
 Iteration  3 RMS(Cart)=  0.00107229 RMS(Int)=  0.00109359
 Iteration  4 RMS(Cart)=  0.00000100 RMS(Int)=  0.00109359
 Iteration  5 RMS(Cart)=  0.00000000 RMS(Int)=  0.00109359
 Variable       Old X    -DE/DX   Delta X   Delta X   Delta X     New X
                                 (Linear)    (Quad)   (Total)
    R1        2.30139  -0.00575   0.00000  -0.00504  -0.00504   2.29635
    R2        2.82404   0.00943   0.00000   0.02321   0.02321   2.84724
    R3        2.83520   0.00392   0.00000   0.00982   0.00982   2.84502
    R4        2.09798  -0.00217   0.00000  -0.00539  -0.00539   2.09259
    R5        2.07044  -0.00194   0.00000  -0.00461  -0.00461   2.06583
    R6        2.07748  -0.00260   0.00000  -0.00625  -0.00625   2.07123
    R7        4.14965   0.01060   0.00000   0.17354   0.17354   4.32319
    R8        2.07320  -0.00241   0.00000  -0.00576  -0.00576   2.06744
    R9        2.07730  -0.00280   0.00000  -0.00674  -0.00674   2.07056
   R10        2.08030  -0.00654   0.00000  -0.01582  -0.01582   2.06448
   R11        2.07085   0.00358   0.00000   0.00852   0.00852   2.07937
   R12        2.07048   0.00375   0.00000   0.00893   0.00893   2.07940
   R13        2.29993  -0.01669   0.00000  -0.01459  -0.01459   2.28534
    A1        2.13346   0.00999   0.00000   0.03182   0.03179   2.16525
    A2        2.11306  -0.00694   0.00000  -0.02211  -0.02213   2.09092
    A3        2.03666  -0.00306   0.00000  -0.00975  -0.00978   2.02688
    A4        1.94519   0.02688   0.00000   0.14609   0.14596   2.09115
    A5        1.97755  -0.01211   0.00000  -0.06981  -0.07166   1.90589
    A6        1.94306  -0.00822   0.00000  -0.04380  -0.04721   1.89585
    A7        1.87315  -0.00505   0.00000  -0.01201  -0.01047   1.86268
    A8        1.84448  -0.00417   0.00000   0.00033  -0.00002   1.84445
    A9        1.87348   0.00253   0.00000  -0.02040  -0.02407   1.84941
   A10        2.49983   0.04109   0.00000   0.13087   0.13087   2.63070
   A11        1.96210  -0.00311   0.00000  -0.01632  -0.01651   1.94559
   A12        1.93977  -0.00365   0.00000  -0.02011  -0.02033   1.91944
   A13        1.94405  -0.00228   0.00000  -0.00665  -0.00667   1.93738
   A14        1.86904   0.00149   0.00000  -0.00063  -0.00101   1.86803
   A15        1.87947   0.00431   0.00000   0.02542   0.02543   1.90489
   A16        1.86471   0.00393   0.00000   0.02159   0.02155   1.88627
   A17        2.03100  -0.00064   0.00000  -0.00326  -0.00417   2.02683
   A18        2.12601   0.00029   0.00000   0.00107   0.00016   2.12616
   A19        2.12610   0.00031   0.00000   0.00126   0.00035   2.12645
   A20        1.84019   0.01960   0.00000   0.09345   0.09345   1.93365
    D1        0.32833   0.00147   0.00000   0.02938   0.03006   0.35839
    D2        2.44318   0.00609   0.00000   0.07172   0.06924   2.51242
    D3       -1.72630  -0.00537   0.00000  -0.03721  -0.03508  -1.76138
    D4       -2.81685   0.00100   0.00000   0.01571   0.01617  -2.80068
    D5       -0.70200   0.00561   0.00000   0.05805   0.05535  -0.64665
    D6        1.41171  -0.00584   0.00000  -0.05087  -0.04897   1.36274
    D7        2.31563   0.00122   0.00000   0.00561   0.00557   2.32121
    D8       -1.87276  -0.00155   0.00000  -0.02045  -0.02019  -1.89296
    D9        0.20441  -0.00052   0.00000  -0.01095  -0.01082   0.19358
   D10       -0.82241   0.00166   0.00000   0.01899   0.01872  -0.80370
   D11        1.27238  -0.00111   0.00000  -0.00707  -0.00705   1.26532
   D12       -2.93364  -0.00008   0.00000   0.00242   0.00232  -2.93132
   D13       -0.43421  -0.00347   0.00000  -0.09158  -0.09194  -0.52615
   D14       -2.60887  -0.00224   0.00000  -0.09055  -0.09207  -2.70094
   D15        1.67900  -0.00089   0.00000  -0.06206  -0.06017   1.61883
   D16        0.24605  -0.00036   0.00000  -0.01341  -0.01341   0.23264
   D17        3.12818  -0.00336   0.00000  -0.07798  -0.07787   3.05031
   D18        1.59759   0.00185   0.00000   0.04222   0.04225   1.63984
   D19       -1.55814  -0.00170   0.00000  -0.04003  -0.04007  -1.59821
         Item               Value     Threshold  Converged?
 Maximum Force            0.041089     0.000450     NO 
 RMS     Force            0.008864     0.000300     NO 
 Maximum Displacement     1.209601     0.001800     NO 
 RMS     Displacement     0.363055     0.001200     NO 
 Predicted change in Energy=-1.167871D-02
 GradGradGradGradGradGradGradGradGradGradGradGradGradGradGradGradGradGrad

                          Input orientation:                          
 ---------------------------------------------------------------------
 Center     Atomic      Atomic             Coordinates (Angstroms)
 Number     Number       Type             X           Y           Z
 ---------------------------------------------------------------------
      1          8           0       -0.590637   -1.193742    0.106155
      2          6           0       -1.251515   -0.177262    0.024508
      3          6           0       -0.671178    1.212453    0.069616
      4          1           0        0.401203    1.368918   -0.157846
      5          1           0       -1.234192    1.859331   -0.608342
      6          1           0       -0.823863    1.623099    1.074292
      7          6           0       -2.748449   -0.266730   -0.108808
      8          1           0       -3.253427    0.418366    0.578632
      9          1           0       -3.051430    0.015425   -1.123272
     10          1           0       -3.098124   -1.284620    0.078616
     11          6           0        2.615855   -0.559118    0.037739
     12          1           0        2.641977   -1.292125   -0.782503
     13          1           0        2.726992   -0.965301    1.054344
     14          8           0        2.566583    0.630903   -0.171900
 ---------------------------------------------------------------------
                    Distance matrix (angstroms):
                    1          2          3          4          5
     1  O    0.000000
     2  C    1.215178   0.000000
     3  C    2.407820   1.506696   0.000000
     4  H    2.760556   2.270551   1.107349   0.000000
     5  H    3.200925   2.132723   1.093189   1.765777   0.000000
     6  H    2.987687   2.127494   1.096045   1.756006   1.747979
     7  C    2.358329   1.505520   2.556340   3.549375   2.657564
     8  H    3.148425   2.160898   2.749124   3.847372   2.750018
     9  H    3.004842   2.143413   2.919153   3.832058   2.639601
    10  H    2.509284   2.153865   3.482172   4.398008   3.718949
    11  C    3.269407   3.886199   3.734176   2.942832   4.592295
    12  H    3.353981   4.129584   4.239813   3.534461   4.998669
    13  H    3.458021   4.184505   4.154499   3.511022   5.141405
    14  O    3.657141   3.907630   3.298428   2.287735   4.018134
                    6          7          8          9         10
     6  H    0.000000
     7  C    2.945371   0.000000
     8  H    2.756781   1.094044   0.000000
     9  H    3.517947   1.095694   1.760579   0.000000
    10  H    3.823410   1.092475   1.781655   1.771111   0.000000
    11  C    4.203353   5.374265   5.974656   5.813447   5.759998
    12  H    4.894718   5.528291   6.287628   5.851555   5.804339
    13  H    4.394176   5.641045   6.156806   6.252519   5.914896
    14  O    3.746007   5.390667   5.872051   5.731142   5.985055
                   11         12         13         14
    11  C    0.000000
    12  H    1.100353   0.000000
    13  H    1.100373   1.867632   0.000000
    14  O    1.209350   2.019048   2.019225   0.000000
 Stoichiometry    C4H8O2
 Framework group  C1[X(C4H8O2)]
 Deg. of freedom    36
 Full point group                 C1      NOp   1
 Largest Abelian subgroup         C1      NOp   1
 Largest concise Abelian subgroup C1      NOp   1
                         Standard orientation:                         
 ---------------------------------------------------------------------
 Center     Atomic      Atomic             Coordinates (Angstroms)
 Number     Number       Type             X           Y           Z
 ---------------------------------------------------------------------
      1          8           0       -0.573438   -1.150954    0.081679
      2          6           0       -1.208668   -0.116537    0.025797
      3          6           0       -0.593914    1.256647    0.106888
      4          1           0        0.482305    1.392084   -0.115898
      5          1           0       -1.139819    1.934553   -0.554544
      6          1           0       -0.737502    1.645066    1.121692
      7          6           0       -2.707208   -0.165170   -0.110586
      8          1           0       -3.195761    0.514454    0.593942
      9          1           0       -3.001858    0.150391   -1.117636
     10          1           0       -3.082377   -1.178489    0.050451
     11          6           0        2.647960   -0.595005    0.031324
     12          1           0        2.656769   -1.307151   -0.807453
     13          1           0        2.747731   -1.029780    1.037225
     14          8           0        2.628624    0.600862   -0.147719
 ---------------------------------------------------------------------
 Rotational constants (GHZ):           7.3203486           1.4000048           1.2072064
 Standard basis: 6-311+G(2d,p) (5D, 7F)
 There are   222 symmetry adapted cartesian basis functions of A   symmetry.
 There are   210 symmetry adapted basis functions of A   symmetry.
   210 basis functions,   316 primitive gaussians,   222 cartesian basis functions
    24 alpha electrons       24 beta electrons
       nuclear repulsion energy       218.4241864939 Hartrees.
 NAtoms=   14 NActive=   14 NUniq=   14 SFac= 1.00D+00 NAtFMM=   60 NAOKFM=F Big=F
 Integral buffers will be    131072 words long.
 Raffenetti 2 integral format.
 Two-electron integral symmetry is turned on.
 One-electron integrals computed using PRISM.
 NBasis=   210 RedAO= T EigKep=  5.02D-05  NBF=   210
 NBsUse=   210 1.00D-06 EigRej= -1.00D+00 NBFU=   210
 Initial guess from the checkpoint file:  "acetone-formaldehyde.chk"
 B after Tr=     0.000000    0.000000    0.000000
         Rot=    0.999812   -0.014499    0.000348    0.012897 Ang=  -2.22 deg.
 ExpMin= 4.38D-02 ExpMax= 8.59D+03 ExpMxC= 1.30D+03 IAcc=3 IRadAn=         5 AccDes= 0.00D+00
 Harris functional with IExCor=  402 and IRadAn=       5 diagonalized for initial guess.
 HarFok:  IExCor=  402 AccDes= 0.00D+00 IRadAn=         5 IDoV= 1 UseB2=F ITyADJ=14
 ICtDFT=  3500011 ScaDFX=  1.000000  1.000000  1.000000  1.000000
 FoFCou: FMM=F IPFlag=           0 FMFlag=      100000 FMFlg1=           0
         NFxFlg=           0 DoJE=T BraDBF=F KetDBF=T FulRan=T
         wScrn=  0.000000 ICntrl=       500 IOpCl=  0 I1Cent=   200000004 NGrid=           0
         NMat0=    1 NMatS0=      1 NMatT0=    0 NMatD0=    1 NMtDS0=    0 NMtDT0=    0
 Petite list used in FoFCou.
 Requested convergence on RMS density matrix=1.00D-08 within  32 cycles.
 Requested convergence on MAX density matrix=1.00D-06.
 Requested convergence on             energy=1.00D-06.
 No special actions if energy rises.
 SCF Done:  E(RB3LYP) =  -307.766873527     A.U. after   12 cycles
            NFock= 12  Conv=0.70D-08     -V/T= 2.0040
 QCSCF skips out because SCF is already converged.
 Calling FoFJK, ICntrl=      2127 FMM=F ISym2X=0 I1Cent= 0 IOpClX= 0 NMat=1 NMatS=1 NMatT=0.
 ***** Axes restored to original set *****
 -------------------------------------------------------------------
 Center     Atomic                   Forces (Hartrees/Bohr)
 Number     Number              X              Y              Z
 -------------------------------------------------------------------
      1        8           0.005151337    0.004057915   -0.000089009
      2        6           0.006999323   -0.008423722    0.000298786
      3        6           0.007117151    0.016875313   -0.003181659
      4        1          -0.011183506   -0.014329709    0.001747062
      5        1          -0.002087502    0.000958155    0.000906012
      6        1          -0.002580633   -0.001076850    0.000723755
      7        6          -0.009214952   -0.000831376    0.000135728
      8        1           0.000567890    0.000882768   -0.000867353
      9        1           0.000957595    0.001272226    0.000538302
     10        1           0.003051625    0.001619477   -0.000074198
     11        6           0.008411998    0.011699093   -0.003150169
     12        1          -0.003381739   -0.001598830   -0.001997064
     13        1          -0.003218135   -0.000773395    0.003005556
     14        8          -0.000590453   -0.010331068    0.002004250
 -------------------------------------------------------------------
 Cartesian Forces:  Max     0.016875313 RMS     0.005617511

 GradGradGradGradGradGradGradGradGradGradGradGradGradGradGradGradGradGrad
 Berny optimization.
 Using GEDIIS/GDIIS optimizer.
 FormGI is forming the generalized inverse of G from B-inverse, IUseBI=4.
 Internal  Forces:  Max     0.022227940 RMS     0.004777390
 Search for a local minimum.
 Step number   2 out of a maximum of   62
 All quantities printed in internal units (Hartrees-Bohrs-Radians)
 Mixed Optimization -- RFO/linear search
 Update second derivatives using D2CorX and points    1    2
 DE= -1.19D-03 DEPred=-1.17D-02 R= 1.02D-01
 Trust test= 1.02D-01 RLast= 3.66D-01 DXMaxT set to 3.00D-01
 ITU=  0  0
 Use linear search instead of GDIIS.
     Eigenvalues ---    0.00230   0.00242   0.00762   0.00804   0.00843
     Eigenvalues ---    0.01717   0.03224   0.04112   0.04939   0.07133
     Eigenvalues ---    0.07169   0.07374   0.11975   0.14539   0.15365
     Eigenvalues ---    0.15976   0.16000   0.16000   0.16000   0.16000
     Eigenvalues ---    0.20529   0.24162   0.25000   0.29271   0.32328
     Eigenvalues ---    0.32728   0.33499   0.33729   0.33759   0.33995
     Eigenvalues ---    0.34061   0.34148   0.34158   0.38070   0.95361
     Eigenvalues ---    0.96424
 RFO step:  Lambda=-8.22381603D-03 EMin= 2.29924071D-03
 Quartic linear search produced a step of -0.56531.
 Iteration  1 RMS(Cart)=  0.19806773 RMS(Int)=  0.05437436
 Iteration  2 RMS(Cart)=  0.12272191 RMS(Int)=  0.00828609
 Iteration  3 RMS(Cart)=  0.01498951 RMS(Int)=  0.00170090
 Iteration  4 RMS(Cart)=  0.00015355 RMS(Int)=  0.00169913
 Iteration  5 RMS(Cart)=  0.00000008 RMS(Int)=  0.00169913
 Variable       Old X    -DE/DX   Delta X   Delta X   Delta X     New X
                                 (Linear)    (Quad)   (Total)
    R1        2.29635  -0.00060   0.00285  -0.00481  -0.00196   2.29439
    R2        2.84724  -0.00158  -0.01312   0.01619   0.00307   2.85032
    R3        2.84502   0.00446  -0.00555   0.01408   0.00853   2.85355
    R4        2.09259  -0.01214   0.00305  -0.02137  -0.01832   2.07426
    R5        2.06583   0.00108   0.00261  -0.00223   0.00038   2.06621
    R6        2.07123   0.00062   0.00353  -0.00413  -0.00060   2.07063
    R7        4.32319   0.00148  -0.09811  -0.05225  -0.15035   4.17284
    R8        2.06744  -0.00025   0.00326  -0.00494  -0.00168   2.06576
    R9        2.07056  -0.00044   0.00381  -0.00596  -0.00215   2.06841
   R10        2.06448  -0.00250   0.00895  -0.01600  -0.00706   2.05742
   R11        2.07937   0.00247  -0.00482   0.01013   0.00531   2.08468
   R12        2.07940   0.00274  -0.00505   0.01080   0.00576   2.08516
   R13        2.28534  -0.00948   0.00825  -0.01766  -0.00941   2.27593
    A1        2.16525  -0.00757  -0.01797   0.01005  -0.00820   2.15704
    A2        2.09092   0.00737   0.01251  -0.00280   0.00942   2.10035
    A3        2.02688   0.00020   0.00553  -0.00668  -0.00144   2.02544
    A4        2.09115  -0.02223  -0.08251   0.01174  -0.07117   2.01998
    A5        1.90589   0.00626   0.04051  -0.01708   0.02449   1.93037
    A6        1.89585   0.00231   0.02669  -0.02564   0.00209   1.89794
    A7        1.86268   0.00864   0.00592   0.01191   0.01709   1.87977
    A8        1.84445   0.00876   0.00001   0.00498   0.00417   1.84862
    A9        1.84941  -0.00189   0.01361   0.01654   0.03177   1.88118
   A10        2.63070  -0.00432  -0.07398   0.08939   0.01541   2.64611
   A11        1.94559   0.00001   0.00933  -0.00960  -0.00017   1.94543
   A12        1.91944  -0.00099   0.01149  -0.01417  -0.00256   1.91688
   A13        1.93738  -0.00278   0.00377  -0.01442  -0.01065   1.92673
   A14        1.86803  -0.00010   0.00057   0.00331   0.00410   1.87213
   A15        1.90489   0.00194  -0.01437   0.01873   0.00435   1.90924
   A16        1.88627   0.00212  -0.01218   0.01783   0.00565   1.89192
   A17        2.02683   0.00073   0.00236   0.00384  -0.00053   2.02630
   A18        2.12616  -0.00022  -0.00009   0.00568  -0.00116   2.12500
   A19        2.12645  -0.00017  -0.00020   0.00494  -0.00197   2.12448
   A20        1.93365  -0.00247  -0.05283   0.05210  -0.00073   1.93292
    D1        0.35839  -0.00120  -0.01699  -0.06310  -0.08002   0.27837
    D2        2.51242  -0.00105  -0.03914  -0.05274  -0.09063   2.42179
    D3       -1.76138   0.00132   0.01983  -0.05618  -0.03752  -1.79889
    D4       -2.80068  -0.00093  -0.00914  -0.02479  -0.03397  -2.83465
    D5       -0.64665  -0.00077  -0.03129  -0.01443  -0.04458  -0.69123
    D6        1.36274   0.00159   0.02768  -0.01787   0.00853   1.37127
    D7        2.32121   0.00045  -0.00315   0.02828   0.02528   2.34648
    D8       -1.89296  -0.00031   0.01142   0.01723   0.02861  -1.86434
    D9        0.19358  -0.00008   0.00612   0.02110   0.02727   0.22086
   D10       -0.80370   0.00035  -0.01058  -0.00844  -0.01899  -0.82268
   D11        1.26532  -0.00041   0.00399  -0.01949  -0.01565   1.24968
   D12       -2.93132  -0.00018  -0.00131  -0.01561  -0.01699  -2.94831
   D13       -0.52615   0.00209   0.05197   0.37224   0.42418  -0.10197
   D14       -2.70094   0.00254   0.05205   0.37614   0.42906  -2.27188
   D15        1.61883  -0.00289   0.03401   0.35018   0.38336   2.00219
   D16        0.23264   0.00076   0.00758   0.09024   0.09782   0.33046
   D17        3.05031   0.00412   0.04402   0.17611   0.21962  -3.01325
   D18        1.63984  -0.00213  -0.02389  -0.09247  -0.11610   1.52374
   D19       -1.59821   0.00227   0.02265   0.09354   0.11594  -1.48227
         Item               Value     Threshold  Converged?
 Maximum Force            0.022228     0.000450     NO 
 RMS     Force            0.004777     0.000300     NO 
 Maximum Displacement     0.815113     0.001800     NO 
 RMS     Displacement     0.305892     0.001200     NO 
 Predicted change in Energy=-6.323001D-04
 GradGradGradGradGradGradGradGradGradGradGradGradGradGradGradGradGradGrad

                          Input orientation:                          
 ---------------------------------------------------------------------
 Center     Atomic      Atomic             Coordinates (Angstroms)
 Number     Number       Type             X           Y           Z
 ---------------------------------------------------------------------
      1          8           0       -0.454823   -1.053046    0.524063
      2          6           0       -1.160981   -0.113809    0.218593
      3          6           0       -0.658488    1.303144    0.097006
      4          1           0        0.431176    1.418555    0.032552
      5          1           0       -1.096978    1.793241   -0.776511
      6          1           0       -0.968030    1.864003    0.985961
      7          6           0       -2.620657   -0.329584   -0.102329
      8          1           0       -3.252973    0.411997    0.392871
      9          1           0       -2.782963   -0.227252   -1.179937
     10          1           0       -2.931633   -1.328603    0.198684
     11          6           0        2.463016   -0.598901   -0.078384
     12          1           0        2.488752   -1.044025   -1.087430
     13          1           0        2.295653   -1.299816    0.757225
     14          8           0        2.478725    0.593695    0.088866
 ---------------------------------------------------------------------
                    Distance matrix (angstroms):
                    1          2          3          4          5
     1  O    0.000000
     2  C    1.214140   0.000000
     3  C    2.403224   1.508323   0.000000
     4  H    2.671215   2.217592   1.097653   0.000000
     5  H    3.194558   2.152015   1.093389   1.769245   0.000000
     6  H    2.997650   2.130217   1.095728   1.750769   1.768599
     7  C    2.367826   1.510034   2.560399   3.519641   2.698611
     8  H    3.161203   2.164087   2.759172   3.836137   2.814889
     9  H    3.000965   2.144664   2.913089   3.809134   2.662271
    10  H    2.513244   2.147401   3.479026   4.345454   3.750050
    11  C    3.013797   3.668360   3.659552   2.865451   4.345490
    12  H    3.355834   3.986421   4.100879   3.398864   4.583035
    13  H    2.771349   3.693922   3.992272   3.375050   4.840381
    14  O    3.392175   3.710101   3.216440   2.208171   3.869553
                    6          7          8          9         10
     6  H    0.000000
     7  C    2.954213   0.000000
     8  H    2.771469   1.093155   0.000000
     9  H    3.515458   1.094557   1.761611   0.000000
    10  H    3.829918   1.088740   1.780634   1.770784   0.000000
    11  C    4.355549   5.090858   5.823789   5.373252   5.450823
    12  H    4.970404   5.252325   6.105628   5.335415   5.578141
    13  H    4.551230   5.084318   5.818102   5.540337   5.257121
    14  O    3.781346   5.185817   5.742629   5.474410   5.742758
                   11         12         13         14
    11  C    0.000000
    12  H    1.103164   0.000000
    13  H    1.103419   1.872290   0.000000
    14  O    1.204369   2.016407   2.016334   0.000000
 Stoichiometry    C4H8O2
 Framework group  C1[X(C4H8O2)]
 Deg. of freedom    36
 Full point group                 C1      NOp   1
 Largest Abelian subgroup         C1      NOp   1
 Largest concise Abelian subgroup C1      NOp   1
                         Standard orientation:                         
 ---------------------------------------------------------------------
 Center     Atomic      Atomic             Coordinates (Angstroms)
 Number     Number       Type             X           Y           Z
 ---------------------------------------------------------------------
      1          8           0       -0.441330   -1.060731    0.348586
      2          6           0       -1.132032   -0.093482    0.100601
      3          6           0       -0.608585    1.320842    0.073597
      4          1           0        0.483007    1.424180    0.022696
      5          1           0       -1.034427    1.872676   -0.768804
      6          1           0       -0.915772    1.827634    0.995236
      7          6           0       -2.592555   -0.266663   -0.241573
      8          1           0       -3.217374    0.450603    0.297055
      9          1           0       -2.746478   -0.092620   -1.311186
     10          1           0       -2.919689   -1.278359   -0.007462
     11          6           0        2.486495   -0.611490   -0.207284
     12          1           0        2.512334   -0.990886   -1.242833
     13          1           0        2.303791   -1.362347    0.580349
     14          8           0        2.518164    0.567465    0.036777
 ---------------------------------------------------------------------
 Rotational constants (GHZ):           7.0519041           1.5401050           1.3211011
 Standard basis: 6-311+G(2d,p) (5D, 7F)
 There are   222 symmetry adapted cartesian basis functions of A   symmetry.
 There are   210 symmetry adapted basis functions of A   symmetry.
   210 basis functions,   316 primitive gaussians,   222 cartesian basis functions
    24 alpha electrons       24 beta electrons
       nuclear repulsion energy       222.1677435374 Hartrees.
 NAtoms=   14 NActive=   14 NUniq=   14 SFac= 1.00D+00 NAtFMM=   60 NAOKFM=F Big=F
 Integral buffers will be    131072 words long.
 Raffenetti 2 integral format.
 Two-electron integral symmetry is turned on.
 One-electron integrals computed using PRISM.
 NBasis=   210 RedAO= T EigKep=  6.00D-05  NBF=   210
 NBsUse=   210 1.00D-06 EigRej= -1.00D+00 NBFU=   210
 Initial guess from the checkpoint file:  "acetone-formaldehyde.chk"
 B after Tr=     0.000000    0.000000    0.000000
         Rot=    0.999971    0.005435    0.002694   -0.004510 Ang=   0.87 deg.
 ExpMin= 4.38D-02 ExpMax= 8.59D+03 ExpMxC= 1.30D+03 IAcc=3 IRadAn=         5 AccDes= 0.00D+00
 Harris functional with IExCor=  402 and IRadAn=       5 diagonalized for initial guess.
 HarFok:  IExCor=  402 AccDes= 0.00D+00 IRadAn=         5 IDoV= 1 UseB2=F ITyADJ=14
 ICtDFT=  3500011 ScaDFX=  1.000000  1.000000  1.000000  1.000000
 FoFCou: FMM=F IPFlag=           0 FMFlag=      100000 FMFlg1=           0
         NFxFlg=           0 DoJE=T BraDBF=F KetDBF=T FulRan=T
         wScrn=  0.000000 ICntrl=       500 IOpCl=  0 I1Cent=   200000004 NGrid=           0
         NMat0=    1 NMatS0=      1 NMatT0=    0 NMatD0=    1 NMtDS0=    0 NMtDT0=    0
 Petite list used in FoFCou.
 Requested convergence on RMS density matrix=1.00D-08 within  32 cycles.
 Requested convergence on MAX density matrix=1.00D-06.
 Requested convergence on             energy=1.00D-06.
 No special actions if energy rises.
 SCF Done:  E(RB3LYP) =  -307.767608537     A.U. after   13 cycles
            NFock= 13  Conv=0.47D-08     -V/T= 2.0039
 QCSCF skips out because SCF is already converged.
 Calling FoFJK, ICntrl=      2127 FMM=F ISym2X=0 I1Cent= 0 IOpClX= 0 NMat=1 NMatS=1 NMatT=0.
 ***** Axes restored to original set *****
 -------------------------------------------------------------------
 Center     Atomic                   Forces (Hartrees/Bohr)
 Number     Number              X              Y              Z
 -------------------------------------------------------------------
      1        8           0.002625250    0.002477995    0.000832104
      2        6           0.002461496   -0.003682349   -0.004598757
      3        6           0.007706784    0.009481564   -0.000219219
      4        1          -0.006632310   -0.008393570    0.001361190
      5        1          -0.003124120    0.000312536    0.001767126
      6        1          -0.003500781    0.000143779   -0.000914382
      7        6          -0.005127974   -0.001131355    0.001963970
      8        1           0.000291158    0.000930944   -0.000790242
      9        1           0.000874306    0.001320657   -0.000023836
     10        1           0.001005092   -0.000379338    0.000270395
     11        6          -0.013642498    0.002158624    0.003498753
     12        1           0.004316825   -0.000821902   -0.002059913
     13        1           0.004984958   -0.000272193    0.000329477
     14        8           0.007761814   -0.002145392   -0.001416667
 -------------------------------------------------------------------
 Cartesian Forces:  Max     0.013642498 RMS     0.004086638

 GradGradGradGradGradGradGradGradGradGradGradGradGradGradGradGradGradGrad
 Berny optimization.
 Using GEDIIS/GDIIS optimizer.
 FormGI is forming the generalized inverse of G from B-inverse, IUseBI=4.
 Internal  Forces:  Max     0.010828607 RMS     0.002632471
 Search for a local minimum.
 Step number   3 out of a maximum of   62
 All quantities printed in internal units (Hartrees-Bohrs-Radians)
 Mixed Optimization -- RFO/linear search
 Update second derivatives using D2CorX and points    2    3
 DE= -7.35D-04 DEPred=-6.32D-04 R= 1.16D+00
 TightC=F SS=  1.41D+00  RLast= 8.06D-01 DXNew= 5.0454D-01 2.4166D+00
 Trust test= 1.16D+00 RLast= 8.06D-01 DXMaxT set to 5.05D-01
 ITU=  1  0  0
 Use linear search instead of GDIIS.
     Eigenvalues ---    0.00171   0.00346   0.00761   0.00791   0.00819
     Eigenvalues ---    0.02472   0.03006   0.04133   0.05485   0.06571
     Eigenvalues ---    0.07190   0.07418   0.11552   0.14328   0.15175
     Eigenvalues ---    0.15891   0.15980   0.16000   0.16000   0.16000
     Eigenvalues ---    0.16440   0.24007   0.25007   0.25737   0.32139
     Eigenvalues ---    0.32599   0.33218   0.33552   0.33759   0.33765
     Eigenvalues ---    0.33998   0.34079   0.34169   0.34343   0.95485
     Eigenvalues ---    0.96422
 RFO step:  Lambda=-4.23945685D-03 EMin= 1.71297989D-03
 Quartic linear search produced a step of -0.40698.
 Iteration  1 RMS(Cart)=  0.20237112 RMS(Int)=  0.03229261
 Iteration  2 RMS(Cart)=  0.11288735 RMS(Int)=  0.00791406
 Iteration  3 RMS(Cart)=  0.01097699 RMS(Int)=  0.00037361
 Iteration  4 RMS(Cart)=  0.00008680 RMS(Int)=  0.00037207
 Iteration  5 RMS(Cart)=  0.00000001 RMS(Int)=  0.00037207
 Variable       Old X    -DE/DX   Delta X   Delta X   Delta X     New X
                                 (Linear)    (Quad)   (Total)
    R1        2.29439  -0.00018   0.00080  -0.00113  -0.00033   2.29406
    R2        2.85032  -0.00046  -0.00125  -0.00135  -0.00260   2.84772
    R3        2.85355   0.00245  -0.00347   0.01270   0.00922   2.86278
    R4        2.07426  -0.00428   0.00746  -0.02796  -0.02050   2.05376
    R5        2.06621  -0.00002  -0.00015   0.00119   0.00104   2.06725
    R6        2.07063   0.00032   0.00024   0.00099   0.00124   2.07186
    R7        4.17284   0.00358   0.06119   0.01119   0.07238   4.24521
    R8        2.06576   0.00010   0.00068  -0.00071  -0.00002   2.06574
    R9        2.06841   0.00002   0.00087  -0.00123  -0.00036   2.06806
   R10        2.05742   0.00014   0.00287  -0.00499  -0.00212   2.05530
   R11        2.08468   0.00232  -0.00216   0.00874   0.00658   2.09126
   R12        2.08516  -0.00033  -0.00234   0.00433   0.00199   2.08715
   R13        2.27593  -0.00125   0.00383  -0.00795  -0.00412   2.27181
    A1        2.15704  -0.00476   0.00334  -0.02519  -0.02200   2.13504
    A2        2.10035   0.00364  -0.00383   0.02300   0.01900   2.11934
    A3        2.02544   0.00114   0.00059   0.00283   0.00325   2.02869
    A4        2.01998  -0.01083   0.02896  -0.12206  -0.09282   1.92715
    A5        1.93037   0.00080  -0.00997   0.02563   0.01614   1.94651
    A6        1.89794   0.00161  -0.00085   0.00699   0.00665   1.90459
    A7        1.87977   0.00612  -0.00695   0.05093   0.04365   1.92342
    A8        1.84862   0.00511  -0.00170   0.03715   0.03513   1.88375
    A9        1.88118  -0.00230  -0.01293   0.00887  -0.00462   1.87655
   A10        2.64611   0.00150  -0.00627   0.00309  -0.00318   2.64293
   A11        1.94543  -0.00003   0.00007  -0.00029  -0.00024   1.94519
   A12        1.91688  -0.00158   0.00104  -0.01044  -0.00942   1.90745
   A13        1.92673  -0.00086   0.00434  -0.01117  -0.00684   1.91989
   A14        1.87213  -0.00009  -0.00167  -0.00282  -0.00452   1.86761
   A15        1.90924   0.00120  -0.00177   0.01287   0.01111   1.92035
   A16        1.89192   0.00144  -0.00230   0.01259   0.01027   1.90219
   A17        2.02630   0.00047   0.00022   0.00267   0.00377   2.03006
   A18        2.12500  -0.00076   0.00047  -0.00231  -0.00096   2.12404
   A19        2.12448   0.00094   0.00080   0.00286   0.00454   2.12902
   A20        1.93292   0.00058   0.00030  -0.00452  -0.00423   1.92869
    D1        0.27837  -0.00001   0.03257  -0.03678  -0.00456   0.27382
    D2        2.42179   0.00066   0.03688  -0.03993  -0.00320   2.41860
    D3       -1.79889  -0.00068   0.01527  -0.00984   0.00493  -1.79396
    D4       -2.83465  -0.00094   0.01383  -0.06319  -0.04904  -2.88369
    D5       -0.69123  -0.00027   0.01814  -0.06634  -0.04768  -0.73891
    D6        1.37127  -0.00162  -0.00347  -0.03625  -0.03956   1.33171
    D7        2.34648   0.00028  -0.01029  -0.00674  -0.01738   2.32910
    D8       -1.86434  -0.00087  -0.01164  -0.01718  -0.02915  -1.89349
    D9        0.22086  -0.00062  -0.01110  -0.01518  -0.02660   0.19426
   D10       -0.82268   0.00104   0.00773   0.01791   0.02595  -0.79673
   D11        1.24968  -0.00011   0.00637   0.00748   0.01419   1.26387
   D12       -2.94831   0.00013   0.00691   0.00948   0.01673  -2.93157
   D13       -0.10197  -0.00161  -0.17263  -0.03613  -0.20875  -0.31072
   D14       -2.27188   0.00017  -0.17462  -0.02346  -0.19704  -2.46891
   D15        2.00219  -0.00252  -0.15602  -0.07537  -0.23244   1.76975
   D16        0.33046  -0.00370  -0.03981  -0.30783  -0.34764  -0.01717
   D17       -3.01325  -0.00551  -0.08938  -0.02750  -0.11700  -3.13026
   D18        1.52374   0.00232   0.04725   0.00628   0.05341   1.57715
   D19       -1.48227  -0.00360  -0.04719  -0.02317  -0.07023  -1.55250
         Item               Value     Threshold  Converged?
 Maximum Force            0.010829     0.000450     NO 
 RMS     Force            0.002632     0.000300     NO 
 Maximum Displacement     0.920876     0.001800     NO 
 RMS     Displacement     0.295415     0.001200     NO 
 Predicted change in Energy=-3.120239D-03
 GradGradGradGradGradGradGradGradGradGradGradGradGradGradGradGradGradGrad

                          Input orientation:                          
 ---------------------------------------------------------------------
 Center     Atomic      Atomic             Coordinates (Angstroms)
 Number     Number       Type             X           Y           Z
 ---------------------------------------------------------------------
      1          8           0       -0.325289   -1.011281    0.036756
      2          6           0       -1.116036   -0.090962   -0.001227
      3          6           0       -0.681623    1.349093    0.090540
      4          1           0        0.387262    1.434683   -0.086390
      5          1           0       -1.232716    1.980214   -0.612799
      6          1           0       -0.887565    1.722748    1.100504
      7          6           0       -2.606279   -0.334430   -0.123155
      8          1           0       -3.170215    0.272932    0.589621
      9          1           0       -2.939214   -0.044475   -1.124516
     10          1           0       -2.824833   -1.388656    0.030983
     11          6           0        2.409262   -0.633684    0.045443
     12          1           0        2.255908   -1.398908   -0.739148
     13          1           0        2.517437   -1.007221    1.079188
     14          8           0        2.443698    0.539545   -0.214568
 ---------------------------------------------------------------------
                    Distance matrix (angstroms):
                    1          2          3          4          5
     1  O    0.000000
     2  C    1.213964   0.000000
     3  C    2.387725   1.506948   0.000000
     4  H    2.550614   2.143537   1.086805   0.000000
     5  H    3.192866   2.162731   1.093939   1.788586   0.000000
     6  H    2.987077   2.134374   1.096383   1.765469   1.766585
     7  C    2.384663   1.514916   2.565972   3.477413   2.735691
     8  H    3.169932   2.168219   2.756863   3.802933   2.848601
     9  H    3.019250   2.141943   2.918066   3.785638   2.696916
    10  H    2.527878   2.145935   3.477379   4.278151   3.781346
    11  C    2.760511   3.567134   3.672466   2.895514   4.530976
    12  H    2.723024   3.691240   4.107186   3.456467   4.858490
    13  H    3.027832   3.899865   4.094340   3.443705   5.084411
    14  O    3.183633   3.621431   3.242853   2.246471   3.968644
                    6          7          8          9         10
     6  H    0.000000
     7  C    2.946744   0.000000
     8  H    2.751992   1.093143   0.000000
     9  H    3.504719   1.094369   1.758515   0.000000
    10  H    3.818078   1.087620   1.786684   1.776255   0.000000
    11  C    4.187480   5.027288   5.678789   5.506556   5.288284
    12  H    4.796924   5.015319   5.831251   5.382591   5.138788
    13  H    4.364312   5.305727   5.850457   5.963072   5.457479
    14  O    3.771830   5.125862   5.677484   5.490431   5.615664
                   11         12         13         14
    11  C    0.000000
    12  H    1.106647   0.000000
    13  H    1.104473   1.878340   0.000000
    14  O    1.202188   2.016941   2.017851   0.000000
 Stoichiometry    C4H8O2
 Framework group  C1[X(C4H8O2)]
 Deg. of freedom    36
 Full point group                 C1      NOp   1
 Largest Abelian subgroup         C1      NOp   1
 Largest concise Abelian subgroup C1      NOp   1
                         Standard orientation:                         
 ---------------------------------------------------------------------
 Center     Atomic      Atomic             Coordinates (Angstroms)
 Number     Number       Type             X           Y           Z
 ---------------------------------------------------------------------
      1          8           0       -0.294562   -1.004657    0.067612
      2          6           0       -1.095954   -0.093892    0.023034
      3          6           0       -0.678269    1.351757    0.103847
      4          1           0        0.389499    1.448424   -0.074122
      5          1           0       -1.236858    1.971149   -0.603992
      6          1           0       -0.888243    1.730555    1.111061
      7          6           0       -2.583305   -0.355553   -0.096506
      8          1           0       -3.154050    0.250545    0.611913
      9          1           0       -2.919875   -0.076997   -1.099885
     10          1           0       -2.789556   -1.411061    0.065607
     11          6           0        2.435422   -0.595279    0.072439
     12          1           0        2.290738   -1.368091   -0.706340
     13          1           0        2.548227   -0.959777    1.108912
     14          8           0        2.456155    0.576289   -0.196366
 ---------------------------------------------------------------------
 Rotational constants (GHZ):           7.3259724           1.6014927           1.3560862
 Standard basis: 6-311+G(2d,p) (5D, 7F)
 There are   222 symmetry adapted cartesian basis functions of A   symmetry.
 There are   210 symmetry adapted basis functions of A   symmetry.
   210 basis functions,   316 primitive gaussians,   222 cartesian basis functions
    24 alpha electrons       24 beta electrons
       nuclear repulsion energy       224.1502975108 Hartrees.
 NAtoms=   14 NActive=   14 NUniq=   14 SFac= 1.00D+00 NAtFMM=   60 NAOKFM=F Big=F
 Integral buffers will be    131072 words long.
 Raffenetti 2 integral format.
 Two-electron integral symmetry is turned on.
 One-electron integrals computed using PRISM.
 NBasis=   210 RedAO= T EigKep=  4.72D-05  NBF=   210
 NBsUse=   210 1.00D-06 EigRej= -1.00D+00 NBFU=   210
 Initial guess from the checkpoint file:  "acetone-formaldehyde.chk"
 B after Tr=     0.000000    0.000000    0.000000
         Rot=    0.999812    0.014123   -0.006083   -0.011794 Ang=   2.22 deg.
 ExpMin= 4.38D-02 ExpMax= 8.59D+03 ExpMxC= 1.30D+03 IAcc=3 IRadAn=         5 AccDes= 0.00D+00
 Harris functional with IExCor=  402 and IRadAn=       5 diagonalized for initial guess.
 HarFok:  IExCor=  402 AccDes= 0.00D+00 IRadAn=         5 IDoV= 1 UseB2=F ITyADJ=14
 ICtDFT=  3500011 ScaDFX=  1.000000  1.000000  1.000000  1.000000
 FoFCou: FMM=F IPFlag=           0 FMFlag=      100000 FMFlg1=           0
         NFxFlg=           0 DoJE=T BraDBF=F KetDBF=T FulRan=T
         wScrn=  0.000000 ICntrl=       500 IOpCl=  0 I1Cent=   200000004 NGrid=           0
         NMat0=    1 NMatS0=      1 NMatT0=    0 NMatD0=    1 NMtDS0=    0 NMtDT0=    0
 Petite list used in FoFCou.
 Requested convergence on RMS density matrix=1.00D-08 within  32 cycles.
 Requested convergence on MAX density matrix=1.00D-06.
 Requested convergence on             energy=1.00D-06.
 No special actions if energy rises.
 SCF Done:  E(RB3LYP) =  -307.769953597     A.U. after   13 cycles
            NFock= 13  Conv=0.52D-08     -V/T= 2.0039
 QCSCF skips out because SCF is already converged.
 Calling FoFJK, ICntrl=      2127 FMM=F ISym2X=0 I1Cent= 0 IOpClX= 0 NMat=1 NMatS=1 NMatT=0.
 ***** Axes restored to original set *****
 -------------------------------------------------------------------
 Center     Atomic                   Forces (Hartrees/Bohr)
 Number     Number              X              Y              Z
 -------------------------------------------------------------------
      1        8          -0.001540649   -0.000700926    0.000435804
      2        6          -0.004045659    0.000687656    0.001650992
      3        6           0.003713845    0.003098642   -0.000273007
      4        1          -0.000394106    0.000725652   -0.000528306
      5        1          -0.000529851   -0.000862171    0.001237390
      6        1          -0.001687186   -0.000520273   -0.000839372
      7        6           0.000384514   -0.002500959   -0.000403595
      8        1           0.000953143    0.000459030   -0.000073694
      9        1           0.000110668    0.000375993   -0.000164351
     10        1          -0.000492658   -0.000802226   -0.000159882
     11        6          -0.003434172   -0.001728771   -0.003574279
     12        1           0.001628121    0.000474847    0.001697046
     13        1           0.000364489   -0.000483406    0.000728011
     14        8           0.004969502    0.001776912    0.000267243
 -------------------------------------------------------------------
 Cartesian Forces:  Max     0.004969502 RMS     0.001720641

 GradGradGradGradGradGradGradGradGradGradGradGradGradGradGradGradGradGrad
 Berny optimization.
 Using GEDIIS/GDIIS optimizer.
 FormGI is forming the generalized inverse of G from B-inverse, IUseBI=4.
 Internal  Forces:  Max     0.005882366 RMS     0.001801291
 Search for a local minimum.
 Step number   4 out of a maximum of   62
 All quantities printed in internal units (Hartrees-Bohrs-Radians)
 Mixed Optimization -- RFO/linear search
 Update second derivatives using D2CorX and points    1    2    3    4
 DE= -2.35D-03 DEPred=-3.12D-03 R= 7.52D-01
 TightC=F SS=  1.41D+00  RLast= 5.54D-01 DXNew= 8.4853D-01 1.6630D+00
 Trust test= 7.52D-01 RLast= 5.54D-01 DXMaxT set to 8.49D-01
 ITU=  1  1  0  0
 Use linear search instead of GDIIS.
     Eigenvalues ---    0.00154   0.00477   0.00761   0.00801   0.00910
     Eigenvalues ---    0.02663   0.03205   0.04186   0.06050   0.07072
     Eigenvalues ---    0.07088   0.07442   0.09204   0.13710   0.14135
     Eigenvalues ---    0.15082   0.16000   0.16000   0.16000   0.16075
     Eigenvalues ---    0.16479   0.20325   0.24617   0.25541   0.31986
     Eigenvalues ---    0.32561   0.33318   0.33736   0.33749   0.33966
     Eigenvalues ---    0.34002   0.34103   0.34299   0.35234   0.94955
     Eigenvalues ---    0.96564
 RFO step:  Lambda=-1.33767728D-03 EMin= 1.54071036D-03
 Quartic linear search produced a step of -0.19142.
 Iteration  1 RMS(Cart)=  0.14096291 RMS(Int)=  0.01322748
 Iteration  2 RMS(Cart)=  0.03307954 RMS(Int)=  0.00063361
 Iteration  3 RMS(Cart)=  0.00094311 RMS(Int)=  0.00019975
 Iteration  4 RMS(Cart)=  0.00000070 RMS(Int)=  0.00019975
 Variable       Old X    -DE/DX   Delta X   Delta X   Delta X     New X
                                 (Linear)    (Quad)   (Total)
    R1        2.29406  -0.00046   0.00006  -0.00135  -0.00129   2.29277
    R2        2.84772   0.00363   0.00050   0.00974   0.01024   2.85796
    R3        2.86278  -0.00048  -0.00177   0.00679   0.00503   2.86780
    R4        2.05376   0.00337   0.00392  -0.00774  -0.00381   2.04995
    R5        2.06725  -0.00103  -0.00020  -0.00213  -0.00232   2.06492
    R6        2.07186  -0.00063  -0.00024  -0.00141  -0.00165   2.07021
    R7        4.24521   0.00326  -0.01385   0.12645   0.11260   4.35781
    R8        2.06574  -0.00029   0.00000  -0.00148  -0.00148   2.06426
    R9        2.06806   0.00022   0.00007  -0.00072  -0.00065   2.06741
   R10        2.05530   0.00085   0.00040  -0.00191  -0.00151   2.05380
   R11        2.09126  -0.00176  -0.00126   0.00178   0.00052   2.09178
   R12        2.08715   0.00088  -0.00038   0.00487   0.00449   2.09164
   R13        2.27181   0.00148   0.00079  -0.00406  -0.00327   2.26853
    A1        2.13504   0.00078   0.00421  -0.00931  -0.00508   2.12997
    A2        2.11934  -0.00284  -0.00364   0.00190  -0.00172   2.11763
    A3        2.02869   0.00207  -0.00062   0.00708   0.00647   2.03516
    A4        1.92715   0.00575   0.01777  -0.01885  -0.00107   1.92609
    A5        1.94651  -0.00169  -0.00309  -0.00542  -0.00870   1.93782
    A6        1.90459  -0.00282  -0.00127  -0.01728  -0.01867   1.88592
    A7        1.92342  -0.00151  -0.00836   0.02600   0.01766   1.94108
    A8        1.88375   0.00019  -0.00672   0.03036   0.02376   1.90750
    A9        1.87655  -0.00006   0.00088  -0.01384  -0.01320   1.86336
   A10        2.64293   0.00588   0.00061   0.03230   0.03291   2.67584
   A11        1.94519  -0.00155   0.00005  -0.01017  -0.01017   1.93502
   A12        1.90745  -0.00032   0.00180  -0.01086  -0.00911   1.89835
   A13        1.91989   0.00100   0.00131  -0.00027   0.00105   1.92094
   A14        1.86761   0.00037   0.00086  -0.00344  -0.00268   1.86492
   A15        1.92035   0.00051  -0.00213   0.01400   0.01188   1.93223
   A16        1.90219  -0.00001  -0.00197   0.01097   0.00901   1.91120
   A17        2.03006  -0.00075  -0.00072  -0.00236  -0.00384   2.02622
   A18        2.12404   0.00115   0.00018   0.00349   0.00290   2.12695
   A19        2.12902  -0.00038  -0.00087  -0.00001  -0.00164   2.12738
   A20        1.92869  -0.00081   0.00081   0.00359   0.00440   1.93309
    D1        0.27382   0.00069   0.00087   0.01628   0.01717   0.29099
    D2        2.41860   0.00167   0.00061   0.03243   0.03295   2.45155
    D3       -1.79396  -0.00124  -0.00094   0.00097   0.00024  -1.79373
    D4       -2.88369   0.00078   0.00939  -0.00738   0.00194  -2.88175
    D5       -0.73891   0.00175   0.00913   0.00878   0.01772  -0.72119
    D6        1.33171  -0.00116   0.00757  -0.02268  -0.01499   1.31672
    D7        2.32910   0.00032   0.00333  -0.00949  -0.00616   2.32294
    D8       -1.89349  -0.00036   0.00558  -0.02676  -0.02109  -1.91458
    D9        0.19426   0.00004   0.00509  -0.02018  -0.01505   0.17921
   D10       -0.79673   0.00020  -0.00497   0.01405   0.00899  -0.78774
   D11        1.26387  -0.00048  -0.00272  -0.00323  -0.00594   1.25792
   D12       -2.93157  -0.00009  -0.00320   0.00335   0.00010  -2.93147
   D13       -0.31072   0.00115   0.03996   0.04332   0.08331  -0.22740
   D14       -2.46891   0.00037   0.03772   0.04522   0.08283  -2.38608
   D15        1.76975   0.00117   0.04449   0.02988   0.07444   1.84419
   D16       -0.01717   0.00281   0.06654   0.16496   0.23150   0.21433
   D17       -3.13026  -0.00100   0.02240  -0.11043  -0.08786   3.06507
   D18        1.57715   0.00146  -0.01022   0.06953   0.05942   1.63657
   D19       -1.55250   0.00042   0.01344  -0.04678  -0.03346  -1.58596
         Item               Value     Threshold  Converged?
 Maximum Force            0.005882     0.000450     NO 
 RMS     Force            0.001801     0.000300     NO 
 Maximum Displacement     0.488031     0.001800     NO 
 RMS     Displacement     0.168604     0.001200     NO 
 Predicted change in Energy=-1.070449D-03
 GradGradGradGradGradGradGradGradGradGradGradGradGradGradGradGradGradGrad

                          Input orientation:                          
 ---------------------------------------------------------------------
 Center     Atomic      Atomic             Coordinates (Angstroms)
 Number     Number       Type             X           Y           Z
 ---------------------------------------------------------------------
      1          8           0       -0.370790   -0.986251    0.295011
      2          6           0       -1.148672   -0.076425    0.097097
      3          6           0       -0.705105    1.369352    0.081757
      4          1           0        0.372330    1.432374   -0.027446
      5          1           0       -1.215791    1.927832   -0.706478
      6          1           0       -0.999701    1.825007    1.033458
      7          6           0       -2.630073   -0.335053   -0.106861
      8          1           0       -3.231151    0.346947    0.498807
      9          1           0       -2.881439   -0.135727   -1.152795
     10          1           0       -2.864331   -1.369122    0.131909
     11          6           0        2.456858   -0.659505   -0.018555
     12          1           0        2.493820   -1.253995   -0.951555
     13          1           0        2.455046   -1.236006    0.926302
     14          8           0        2.498796    0.540168   -0.029418
 ---------------------------------------------------------------------
                    Distance matrix (angstroms):
                    1          2          3          4          5
     1  O    0.000000
     2  C    1.213283   0.000000
     3  C    2.388746   1.512368   0.000000
     4  H    2.550677   2.146027   1.084788   0.000000
     5  H    3.195135   2.160389   1.092709   1.796856   0.000000
     6  H    2.973887   2.124713   1.095510   1.778243   1.756315
     7  C    2.385356   1.517576   2.577998   3.484900   2.735029
     8  H    3.162375   2.162714   2.756837   3.800022   2.830827
     9  H    3.020413   2.137342   2.919899   3.783169   2.689212
    10  H    2.528031   2.148433   3.487694   4.283661   3.780275
    11  C    2.863682   3.654204   3.758235   2.953183   4.544876
    12  H    3.135539   3.969143   4.264130   3.545599   4.893394
    13  H    2.906243   3.875435   4.181830   3.516759   5.113793
    14  O    3.266455   3.701380   3.311327   2.306055   4.022707
                    6          7          8          9         10
     6  H    0.000000
     7  C    2.936716   0.000000
     8  H    2.729447   1.092361   0.000000
     9  H    3.487853   1.094026   1.755865   0.000000
    10  H    3.806849   1.086824   1.792781   1.781016   0.000000
    11  C    4.384898   5.098032   5.799487   5.482541   5.370404
    12  H    5.062136   5.273731   6.118976   5.494036   5.467809
    13  H    4.616986   5.266647   5.917882   5.831923   5.380014
    14  O    3.875564   5.203586   5.757486   5.537666   5.695134
                   11         12         13         14
    11  C    0.000000
    12  H    1.106921   0.000000
    13  H    1.106848   1.878344   0.000000
    14  O    1.200456   2.017272   2.017452   0.000000
 Stoichiometry    C4H8O2
[...]
 ! A11   A(2,7,8)              110.5595         -DE/DX =    0.0                 !
 ! A12   A(2,7,9)              109.6599         -DE/DX =    0.0                 !
 ! A13   A(2,7,10)             110.2208         -DE/DX =    0.0                 !
 ! A14   A(8,7,9)              106.8239         -DE/DX =    0.0                 !
 ! A15   A(8,7,10)             110.0304         -DE/DX =    0.0                 !
 ! A16   A(9,7,10)             109.4813         -DE/DX =    0.0                 !
 ! A17   A(12,11,13)           115.8877         -DE/DX =    0.0                 !
 ! A18   A(12,11,14)           122.0524         -DE/DX =    0.0                 !
 ! A19   A(13,11,14)           122.0574         -DE/DX =    0.0                 !
 ! A20   A(4,14,11)             92.6337         -DE/DX =    0.0                 !
 ! D1    D(1,2,3,4)              5.6055         -DE/DX =    0.0                 !
 ! D2    D(1,2,3,5)            127.7063         -DE/DX =    0.0                 !
 ! D3    D(1,2,3,6)           -115.0764         -DE/DX =    0.0                 !
 ! D4    D(7,2,3,4)           -174.4457         -DE/DX =    0.0                 !
 ! D5    D(7,2,3,5)            -52.345          -DE/DX =    0.0                 !
 ! D6    D(7,2,3,6)             64.8723         -DE/DX =    0.0                 !
 ! D7    D(1,2,7,8)            126.9338         -DE/DX =    0.0                 !
 ! D8    D(1,2,7,9)           -115.5337         -DE/DX =    0.0                 !
 ! D9    D(1,2,7,10)             5.0634         -DE/DX =    0.0                 !
 ! D10   D(3,2,7,8)            -53.0153         -DE/DX =    0.0                 !
 ! D11   D(3,2,7,9)             64.5172         -DE/DX =    0.0                 !
 ! D12   D(3,2,7,10)          -174.8857         -DE/DX =    0.0                 !
 ! D13   D(2,3,4,14)            -4.521          -DE/DX =    0.0                 !
 ! D14   D(5,3,4,14)          -126.8525         -DE/DX =    0.0                 !
 ! D15   D(6,3,4,14)           116.1744         -DE/DX =    0.0                 !
 ! D16   D(3,4,14,11)            0.0882         -DE/DX =    0.0                 !
 ! D17   D(12,11,13,14)        179.4276         -DE/DX =    0.0                 !
 ! D18   D(12,11,14,4)          91.8077         -DE/DX =    0.0                 !
 ! D19   D(13,11,14,4)         -88.7999         -DE/DX =    0.0                 !
 --------------------------------------------------------------------------------
 GradGradGradGradGradGradGradGradGradGradGradGradGradGradGradGradGradGrad


 ----------------------------------------------------------------------

 Electric dipole moment (input orientation):
 (Debye = 10**-18 statcoulomb cm , SI units = C m)
                  (au)            (Debye)         (10**-30 SI)
   Tot        0.133292D+01      0.338794D+01      0.113010D+02
   x         -0.133280D+01     -0.338764D+01     -0.113000D+02
   y          0.376284D-02      0.956419D-02      0.319027D-01
   z          0.174038D-01      0.442360D-01      0.147555D+00

 Dipole polarizability, Alpha (input orientation).
 (esu units = cm**3 , SI units = C**2 m**2 J**-1)
 Alpha(0;0):
               (au)            (10**-24 esu)      (10**-40 SI)
   iso        0.580338D+02      0.859972D+01      0.956848D+01
   aniso      0.159925D+02      0.236985D+01      0.263681D+01
   xx         0.643340D+02      0.953332D+01      0.106072D+02
   yx         0.502499D+00      0.744627D-01      0.828509D-01
   yy         0.622920D+02      0.923073D+01      0.102706D+02
   zx         0.582864D+00      0.863715D-01      0.961013D-01
   zy        -0.895240D-01     -0.132661D-01     -0.147605D-01
   zz         0.474753D+02      0.703511D+01      0.782762D+01

 ----------------------------------------------------------------------

 Dipole orientation:
     8          0.09500875         -1.77417859          0.60144743
     6          0.00080787         -0.10259528          2.16918315
     6          0.06673168          2.65842417          1.43644300
     1          0.01449441          2.86797814         -0.60780705
     1         -1.51840443          3.67026394          2.29273006
     1          1.79408526          3.52531676          2.17293160
     6         -0.18671389         -0.69624923          4.96009652
     1          1.29771725          0.28332622          6.01181339
     1         -1.99349329         -0.01173308          5.69685872
     1         -0.04561751         -2.72480156          5.26633105
     6          0.11940013         -1.28724842         -4.76262690
     1         -1.58853235         -2.43435001         -4.40800768
     1          1.94434603         -2.23059863         -4.39096898
     8         -0.00037733          0.85161975         -5.52612138

 Electric dipole moment (dipole orientation):
 (Debye = 10**-18 statcoulomb cm , SI units = C m)
                  (au)            (Debye)         (10**-30 SI)
   Tot        0.133292D+01      0.338794D+01      0.113010D+02
   x          0.000000D+00      0.000000D+00      0.000000D+00
   y          0.000000D+00      0.000000D+00      0.000000D+00
   z          0.133292D+01      0.338794D+01      0.113010D+02

 Dipole polarizability, Alpha (dipole orientation).
 (esu units = cm**3 , SI units = C**2 m**2 J**-1)
 Alpha(0;0):
               (au)            (10**-24 esu)      (10**-40 SI)
   iso        0.580338D+02      0.859972D+01      0.956848D+01
   aniso      0.159925D+02      0.236985D+01      0.263681D+01
   xx         0.474930D+02      0.703774D+01      0.783055D+01
   yx        -0.394449D-01     -0.584513D-02     -0.650359D-02
   yy         0.622952D+02      0.923120D+01      0.102711D+02
   zx        -0.804417D+00     -0.119202D+00     -0.132630D+00
   zy        -0.507091D+00     -0.751432D-01     -0.836081D-01
   zz         0.643130D+02      0.953021D+01      0.106038D+02

 ----------------------------------------------------------------------
 1\1\GINC-HRG02\Freq\RB3LYP\6-311+G(2d,p)\C4H8O2\HASHMI\01-Jul-2023\0\\
 #N Geom=AllCheck Guess=TCheck SCRF=Check GenChk RB3LYP/6-311+G(2d,p) F
 req\\Title Card Required\\0,1\O,-0.3202030236,-0.9378089193,0.05707801
 83\C,-1.1479255518,-0.0510489832,0.0155684943\C,-0.7556839119,1.409010
 6774,0.0412633541\H,0.3259379412,1.5167701219,-0.0008145463\H,-1.21823
 80804,1.943390935,-0.7930748311\H,-1.1321617262,1.8713940466,0.9590516
 106\C,-2.6268533012,-0.3613018869,-0.0634845026\H,-3.1716411581,0.1608
 229384,0.7277759152\H,-3.0281782625,-0.0006378337,-1.0154376631\H,-2.7
 909067688,-1.4340915903,0.0163201208\C,2.5189761878,-0.6881158682,0.03
 21942628\H,2.3178372341,-1.2971196778,-0.8673602129\H,2.3335467657,-1.
 1840653069,1.0018050513\O,2.9252896556,0.442398347,-0.0396540714\\Vers
 ion=EM64L-G16RevB.01\State=1-A\HF=-307.7716619\RMSD=4.904e-09\RMSF=2.0
 16e-06\ZeroPoint=0.1110923\Thermal=0.1210679\Dipole=-1.3328012,0.00376
 28,0.0174038\DipoleDeriv=-1.0543178,0.27458,-0.0265471,0.3659735,-0.86
 41118,0.0116508,-0.0252107,0.015041,-0.2993353,1.2720232,-0.0779596,0.
 0672282,-0.2287013,1.1384033,0.0121232,0.0645834,0.0027336,0.0973574,-
 0.0620684,-0.1131017,-0.0043354,-0.0514216,-0.3822384,-0.0206532,-0.00
 13307,-0.0413073,0.0884354,-0.0182953,-0.0522177,0.003346,-0.0172846,0
 .0435277,-0.0015352,0.0041855,0.0058992,0.0814828,0.0363622,0.0124857,
 -0.0751837,0.0223625,0.0380179,0.0243034,-0.0688716,0.079842,-0.015889
 4,0.0529996,-0.0010471,0.0672862,0.0142928,0.0455826,-0.0171926,0.0612
 173,-0.0611439,-0.0287089,-0.4303532,-0.0650381,-0.0382522,-0.0513616,
 -0.0025958,-0.0041121,-0.0629359,-0.0008756,0.0730124,0.0228242,0.0179
 817,0.0227857,0.0140167,0.0316232,-0.0794666,0.0793481,-0.0683322,-0.0
 054924,0.0379153,0.0041296,-0.0117894,-0.0104563,0.0583475,0.0666066,-
 0.0569899,0.0558586,-0.0374251,0.0376204,-0.0025178,-0.0030272,-0.0574
 036,-0.0750959,0.0088234,0.0070624,0.012736,0.0848188,0.4985355,0.2837
 252,-0.0151613,0.3508408,0.9396513,-0.0156544,-0.0203934,-0.0158718,0.
 7368709,0.0741481,-0.0479452,-0.0180503,-0.0373248,-0.0528161,-0.08896
 01,-0.0546077,-0.1273226,-0.1510142,0.0741959,-0.0434635,0.0193981,-0.
 0296232,-0.0285807,0.0747645,0.0546901,0.1138209,-0.1773045,-0.5415897
 ,-0.1896113,0.0123025,-0.2839094,-0.8897148,0.0293022,0.0192532,0.0289
 223,-0.4468079\Polar=64.3340009,0.5024993,62.2920266,0.582864,-0.08952
 4,47.4752885\Quadrupole=-0.5597615,-0.2564997,0.8162612,-5.1721384,0.3
 773662,0.1410527\PG=C01 [X(C4H8O2)]\NImag=0\\0.43248125,-0.35271983,0.
 47593075,0.01997728,-0.01794941,0.02561653,-0.38822098,0.29674310,-0.0
 1556774,0.68936808,0.29604003,-0.42869638,0.01526629,-0.20944193,0.720
 39595,-0.01567278,0.01510499,-0.07076556,0.02237965,-0.01021872,0.2474
 2028,0.01139166,0.03732607,0.00058525,-0.10951957,-0.04566428,-0.00192
 920,0.59910658,0.01684555,-0.05240733,0.00011297,-0.04401145,-0.154570
 13,-0.00137643,-0.02210255,0.45579678,0.00018235,0.00148973,0.02608081
 ,-0.00098501,0.00016877,-0.08882659,0.00148432,-0.00678226,0.51266862,
 0.00250855,0.00150470,-0.00012344,-0.00940210,-0.00031328,0.00006368,-
 0.32014685,-0.02642449,0.01079473,0.34354639,0.00250487,0.00447246,-0.
 00026817,-0.03737774,-0.00265040,0.00142242,-0.02138842,-0.05062882,0.
 00187285,0.02793139,0.05362596,-0.00010971,0.00043762,-0.00114171,-0.0
 0124881,-0.00097676,-0.00148904,0.01069403,0.00207044,-0.04864211,-0.0
 1172950,-0.00113439,0.04707056,0.00171960,-0.00118812,-0.00133896,0.00
 278474,0.00045592,0.00959717,-0.09491980,0.04944090,-0.08572722,-0.009
 38627,0.01549935,-0.02464184,0.09684998,-0.00169626,-0.00712124,-0.003
 91881,0.01791191,-0.01254815,0.02746768,0.05020814,-0.10516861,0.10175
 982,-0.00107591,0.00135500,-0.00376135,-0.05768582,0.11475975,0.000716
 00,-0.00098087,-0.00075476,0.00054363,-0.00192893,0.00137158,-0.085211
 87,0.09911505,-0.19406945,0.00097831,-0.00247743,0.00211999,0.09446553
 ,-0.10760543,0.21266200,0.00131747,-0.00059113,0.00070645,0.00189269,0
 .00081333,-0.00926728,-0.07617887,0.03322830,0.07594503,-0.00759323,0.
 01369765,0.02698374,0.00421059,-0.00639027,-0.01164401,0.07793404,-0.0
 0164170,-0.00540543,0.00457462,0.01476113,-0.01211102,-0.03022540,0.03
 507570,-0.08853448,-0.09734146,-0.00072742,0.00099819,0.00370793,-0.00
 600763,0.00768257,0.01400483,-0.04015857,0.09665383,-0.00097851,0.0007
 7612,-0.00085761,0.00012306,0.00012828,0.00041718,0.07618149,-0.092730
 82,-0.22451165,-0.00011355,0.00094437,0.00004831,0.00857489,-0.0109506
 2,-0.02162390,-0.08378328,0.10192506,0.24604923,-0.05055226,0.02075838
 ,-0.00435681,-0.15797451,-0.04117056,-0.00279656,-0.00594581,-0.006394
 49,-0.00167258,0.00096607,0.00019362,0.00014539,-0.00089887,-0.0003941
 1,-0.00007233,-0.00118174,-0.00049451,0.00031340,0.45384880,0.04145218
 ,0.00778842,0.00317266,-0.04264370,-0.10321663,-0.00301786,-0.03239099
 ,-0.00380399,-0.00079831,-0.00175017,-0.00619711,-0.00062825,0.0003375
 0,0.00110757,-0.00012114,0.00050146,0.00056084,-0.00035124,-0.01670178
 ,0.59769381,-0.00405331,0.00183152,0.02522508,-0.00131349,-0.00217660,
 -0.08837344,-0.00056349,-0.00087247,0.01704005,0.00018077,-0.00019127,
 0.00115132,-0.00153391,-0.00239353,-0.00034999,0.00106773,0.00287983,-
 0.00043950,-0.00800316,-0.00294565,0.51311426,-0.00717242,-0.00129946,
 -0.00415971,-0.01220755,0.01950419,0.02644103,0.00129043,-0.00061477,-
 0.00240337,0.00024487,0.00032334,-0.00043368,0.00006019,0.00021911,0.0
 0002538,-0.00051880,-0.00125034,-0.00020988,-0.10854159,0.05845923,0.0
 9884211,0.11748252,-0.00058160,0.00178966,-0.00121911,0.00077247,0.002
 16968,0.00804675,0.00030308,-0.00094103,-0.00132642,0.00020348,0.00017
 185,0.00015086,-0.00012338,0.00005915,0.00017271,-0.00094239,-0.000241
 15,0.00024612,0.05748068,-0.10735499,-0.09183370,-0.06685358,0.1110873
 5,-0.00115072,0.00061525,-0.00090947,-0.00249063,0.00147582,0.00210272
 ,-0.00005276,-0.00007129,-0.00041325,0.00000611,0.00021348,0.00015920,
 0.00018757,0.00001360,-0.00017366,-0.00015507,-0.00004280,0.00058189,0
 .09596661,-0.09123844,-0.17879362,-0.10407243,0.10108513,0.19586819,-0
 .00600966,-0.00090493,0.00428080,-0.00938216,0.01397029,-0.03152865,0.
 00046759,-0.00045592,0.00294925,0.00013306,0.00009210,0.00048500,-0.00
 038690,-0.00124731,-0.00002820,0.00025832,0.00054250,0.00008218,-0.077
 45260,0.02827864,-0.08821159,0.00680379,-0.00595721,0.01486321,0.08408
 129,-0.00017937,0.00141537,0.00038577,0.00191061,0.00077581,-0.0075563
 9,0.00035053,-0.00110062,0.00087582,0.00014957,0.00001012,0.00015944,-
 0.00093999,-0.00039214,-0.00014863,-0.00032508,0.00024288,-0.00000646,
 0.02665889,-0.07349748,0.07576018,-0.00637483,0.00472485,-0.01371612,-
 0.03318982,0.07529200,0.00041902,-0.00112667,-0.00051688,-0.00027457,0
 .00070786,-0.00064636,-0.00030910,0.00033779,-0.00038489,-0.00001574,-
 0.00018400,0.00028453,0.00024194,-0.00023375,0.00061216,0.00001916,0.0
 0009404,0.00006054,-0.08345558,0.07584515,-0.23955407,-0.00900149,0.00
 780728,-0.02117789,0.09181028,-0.08331891,0.26203631,0.00472181,0.0023
 2769,-0.00009694,-0.00491718,-0.03731697,0.00282131,-0.00630960,0.0006
 7026,-0.00048073,-0.00036929,-0.00186614,-0.00018806,0.00020042,0.0003
 6849,0.00018378,0.00004183,0.00008707,-0.00019413,-0.05273237,-0.03493
 344,0.00355131,0.00236743,0.01566037,-0.00308740,0.00133486,0.01190781
 ,0.00055168,0.05579906,0.00139219,0.00292211,-0.00015438,0.00015805,-0
 .00904001,0.00033159,-0.00191094,0.00117507,0.00007223,-0.00005507,-0.
 00041793,-0.00003505,0.00025038,0.00027388,-0.00000256,0.00018599,0.00
 016284,-0.00000004,-0.03983611,-0.31318884,0.01995217,-0.00208565,-0.0
 1146179,0.00165777,-0.00110983,-0.00746848,0.00007790,0.04308410,0.337
 03296,0.00061261,-0.00021584,-0.00109230,-0.00113531,-0.00243084,-0.00
 127784,-0.00085615,0.00021115,0.00102940,-0.00005559,-0.00021636,0.000
 53557,0.00012253,-0.00042613,0.00019820,0.00016907,0.00047384,0.000264
 42,0.00394874,0.02006086,-0.04923967,-0.00498673,-0.02311483,0.0027700
 8,0.00525769,0.02755470,-0.00070233,-0.00306321,-0.02190039,0.04751097
 ,0.00183311,-0.00246078,-0.00006140,-0.00268922,0.00521111,-0.00013528
 ,0.00038186,-0.00065755,-0.00012494,-0.00018927,0.00035987,0.00001947,
 -0.00013368,-0.00023067,0.00007367,-0.00010955,-0.00021661,-0.00002401
 ,0.00075313,-0.00098254,0.00013108,0.00032396,0.00002573,-0.00003688,0
 .00028966,0.00002916,0.00004313,-0.00018205,-0.00005619,-0.00002122,0.
 25753869,0.00068721,-0.00553742,-0.00000450,-0.00040886,0.00526075,-0.
 00007156,0.00126246,-0.00060244,-0.00013571,0.00114546,-0.00101736,0.0
 0006161,-0.00050354,-0.00023542,0.00002770,-0.00039767,-0.00018799,0.0
 0005407,0.00028694,-0.00095100,0.00004068,0.00023959,0.00005833,-0.000
 06864,0.00018233,0.00007046,0.00005825,-0.00027138,-0.00013632,-0.0000
 1409,0.24834464,0.88246487,-0.00008398,0.00010601,-0.00489636,0.000032
 93,-0.00028632,0.00032938,-0.00003479,0.00002423,-0.00045425,-0.000049
 41,0.00005115,0.00048043,-0.00014673,0.00008391,-0.00003014,0.00021168
 ,-0.00010512,-0.00003211,-0.00010774,0.00009299,0.00092476,-0.00015666
 ,-0.00007408,-0.00004013,0.00012128,0.00006436,-0.00003472,0.00000677,
 0.00000518,0.00006137,-0.01218472,-0.01980533,0.59151625,-0.00086765,0
 .00033757,0.00084952,-0.00035552,-0.00031160,0.00004859,-0.00003042,-0
 .00001052,0.00014678,-0.00004788,0.00005625,-0.00011691,0.00005717,-0.
 00000827,0.00000349,-0.00000591,0.00001882,-0.00000472,0.00001978,0.00
 007948,-0.00016448,0.00001184,0.00000294,0.00000219,-0.00005262,0.0000
 0141,0.00000230,0.00001201,0.00000964,0.00000645,-0.06078980,-0.015146
 47,-0.03149027,0.03320073,0.00015935,0.00016274,0.00025947,0.00024986,
 -0.00013431,-0.00004183,-0.00004725,0.00003340,0.00002704,-0.00007730,
 -0.00004929,-0.00006324,0.00004296,-0.00000683,-0.00000523,-0.00000842
 ,-0.00000280,0.00001311,0.00000302,0.00001356,-0.00003742,0.00000719,-
 0.00000513,0.00001083,0.00000740,-0.00001281,-0.00000404,0.00000207,0.
 00000532,-0.00000301,-0.01496944,-0.10309380,-0.08604943,0.03786053,0.
 13064325,-0.00098549,0.00091296,0.00117827,0.00030731,-0.00091302,-0.0
 0002299,-0.00008531,0.00017956,0.00010034,-0.00006297,0.00000088,-0.00
 007627,0.00004459,0.00003251,0.00000354,-0.00001811,0.00006657,0.00000
 056,-0.00012427,0.00014425,-0.00022807,-0.00002163,0.00001079,0.000019
 38,-0.00007986,-0.00002131,-0.00000740,0.00003575,0.00000974,-0.000012
 18,-0.02551951,-0.08215824,-0.22953120,0.03628210,0.10750812,0.2279763
 9,-0.00088247,0.00021833,-0.00079645,-0.00036029,-0.00030748,-0.000063
 05,-0.00002548,-0.00001923,-0.00012731,-0.00000313,0.00006569,0.000115
 45,-0.00000092,0.00001387,0.00000668,0.00005027,-0.00000498,-0.0000080
 4,-0.00000332,0.00009062,0.00015498,-0.00004913,-0.00000061,-0.0000103
 0,0.00001416,0.00000278,-0.00000237,0.00001090,0.00000691,-0.00000450,
 -0.05979586,-0.01022774,0.03001443,0.01708741,-0.00351472,-0.00455908,
 0.03194859,0.00029682,0.00003348,-0.00016204,0.00020754,0.00000711,0.0
 0004978,-0.00003554,0.00000708,-0.00002675,-0.00007692,-0.00004430,0.0
 0006307,-0.00001028,-0.00000822,-0.00001779,0.00004478,-0.00002002,-0.
 00000104,0.00001262,-0.00000938,0.00002376,0.00001124,-0.00000968,0.00
 000763,0.00001397,-0.00000612,-0.00000352,-0.00000434,0.00000356,0.000
 00240,-0.01067687,-0.08477801,0.06864733,-0.00316937,0.01054270,-0.012
 42500,0.03174145,0.10627375,0.00097238,-0.00081580,0.00127252,-0.00032
 660,0.00090225,-0.00006795,0.00006069,-0.00017674,0.00007424,0.0000817
 3,0.00000045,-0.00007775,0.00001310,-0.00005711,0.00000949,-0.00004499
 ,-0.00001506,0.00000983,0.00016372,-0.00015806,-0.00019871,0.00008691,
 0.00002136,-0.00000430,0.00001419,-0.00000949,0.00001675,-0.00003074,-
 0.00000913,-0.00001906,0.02405194,0.06474220,-0.24882102,0.00436449,0.
 00890947,-0.01891632,-0.03700973,-0.09324487,0.25361905,-0.00226801,-0
 .00005160,0.00010215,0.00098357,-0.00146876,0.00004136,0.00043828,0.00
 050596,0.00001871,-0.00026092,-0.00009183,0.00002543,-0.00015624,0.000
 00707,-0.00004007,-0.00011711,0.00001654,0.00004111,-0.00030470,0.0002
 0351,-0.00008456,-0.00009551,0.00001001,0.00003051,-0.00009878,-0.0000
 0167,-0.00002866,0.00002218,-0.00003346,0.00000563,-0.13723099,-0.2251
 9298,0.01386722,0.01176085,-0.01971524,-0.00521351,0.01200927,-0.01835
 510,0.00760289,0.11531812,-0.00255945,0.00465280,-0.00009536,0.0011690
 1,-0.00564227,0.00008499,-0.00098600,0.00074511,0.00014467,-0.00043401
 ,0.00037164,-0.00005192,0.00043174,0.00024269,-0.00003226,0.00034203,0
 .00020174,-0.00004691,-0.00040260,0.00105522,-0.00003750,-0.00028528,-
 0.00004711,0.00005776,-0.00022220,-0.00005384,-0.00005737,0.00028441,0
 .00013761,0.00001854,-0.22371987,-0.69131466,0.03724513,-0.01972042,-0
 .03809601,-0.01334780,-0.01806489,-0.03199195,0.01991052,0.26416754,0.
 75973901,0.00015487,-0.00018561,0.00156142,-0.00004443,0.00028193,-0.0
 0017138,0.00003690,-0.00004117,0.00030874,0.00004487,-0.00003396,-0.00
 042305,0.00014133,-0.00001080,0.00002493,-0.00019012,0.00000312,0.0000
 3282,0.00005118,-0.00005696,-0.00027840,0.00005014,0.00002714,0.000010
 86,-0.00001559,-0.00002294,0.00001425,-0.00000940,-0.00000503,-0.00002
 663,0.01378867,0.03727356,-0.10947226,-0.00992952,-0.03052384,0.019515
 95,0.01228930,0.03708705,0.01310322,-0.01636822,-0.04379249,0.07579953
 \\0.00000037,0.00000393,-0.00000109,0.00000505,-0.00000438,-0.00000052
 ,-0.00000492,0.00000074,0.00000301,-0.00000011,0.00000039,0.00000025,0
 .00000074,-0.00000117,-0.00000123,0.00000101,-0.00000045,-0.00000006,-
 0.00000441,-0.00000173,0.00000290,0.00000054,-0.00000074,-0.00000078,0
 .00000082,-0.00000084,-0.00000050,0.00000125,-0.00000092,-0.00000024,0
 .00000055,0.00000467,0.00000028,0.00000150,0.00000023,-0.00000128,-0.0
 0000128,0.00000143,0.00000044,-0.00000111,-0.00000114,-0.00000118\\\@


 THE NUMBERS ARE MEANINGLESS, BUT THE TRENDS ARE IMPORTANT.
     -- LARRY BURGGRAF
 Job cpu time:       0 days  0 hours 42 minutes 56.1 seconds.
 Elapsed time:       0 days  0 hours 10 minutes 44.5 seconds.
 File lengths (MBytes):  RWF=     61 Int=      0 D2E=      0 Chk=      5 Scr=      1
 Normal termination of Gaussian 16 at Sat Jul  1 10:44:22 2023.
