 Title Card Required
GAUSSIAN             24 MOL ORBITALS    316 PRIMITIVES       14 NUCLEI
  O    1    (CENTRE  1)  -0.65344248 -1.76850157  0.10368466  CHARGE =  8.0
  C    2    (CENTRE  2)  -2.26120663 -0.13437068  0.02904854  CHARGE =  6.0
  C    3    (CENTRE  3)  -1.59199944  2.64326569  0.06620228  CHARGE =  6.0
  H    4    (CENTRE  4)   0.44551230  2.89992443 -0.02474872  CHARGE =  1.0
  H    5    (CENTRE  5)  -2.50043116  3.62547156 -1.50851267  CHARGE =  1.0
  H    6    (CENTRE  6)  -2.31688112  3.50310901  1.80196858  CHARGE =  1.0
  C    7    (CENTRE  7)  -5.04046661 -0.79379012 -0.10386794  CHARGE =  6.0
  H    8    (CENTRE  8)  -6.08749828  0.16993349  1.39418872  CHARGE =  1.0
  H    9    (CENTRE  9)  -5.82583245 -0.13736007 -1.90056847  CHARGE =  1.0
  H   10    (CENTRE 10)  -5.29666736 -2.82802962  0.05406612  CHARGE =  1.0
  C   11    (CENTRE 11)   4.69736409 -1.15698806  0.02681079  CHARGE =  6.0
  H   12    (CENTRE 12)   4.33850799 -2.32218436 -1.66793701  CHARGE =  1.0
  H   13    (CENTRE 13)   4.38116588 -2.09781185  1.86347517  CHARGE =  1.0
  O   14    (CENTRE 14)   5.40843945  0.99828237 -0.11882138  CHARGE =  8.0
CENTRE ASSIGNMENTS    1  1  1  1  1  1  1  1  1  1  1  1  1  1  1  1  1  1  1  1
CENTRE ASSIGNMENTS    1  1  1  1  1  1  1  1  1  1  1  1  1  1  1  1  1  1  1  1
CENTRE ASSIGNMENTS    1  1  2  2  2  2  2  2  2  2  2  2  2  2  2  2  2  2  2  2
CENTRE ASSIGNMENTS    2  2  2  2  2  2  2  2  2  2  2  2  2  2  2  2  2  2  2  2
CENTRE ASSIGNMENTS    2  2  2  2  3  3  3  3  3  3  3  3  3  3  3  3  3  3  3  3
CENTRE ASSIGNMENTS    3  3  3  3  3  3  3  3  3  3  3  3  3  3  3  3  3  3  3  3
CENTRE ASSIGNMENTS    3  3  3  3  3  3  4  4  4  4  4  4  4  4  5  5  5  5  5  5
CENTRE ASSIGNMENTS    5  5  6  6  6  6  6  6  6  6  7  7  7  7  7  7  7  7  7  7
CENTRE ASSIGNMENTS    7  7  7  7  7  7  7  7  7  7  7  7  7  7  7  7  7  7  7  7
CENTRE ASSIGNMENTS    7  7  7  7  7  7  7  7  7  7  7  7  8  8  8  8  8  8  8  8
CENTRE ASSIGNMENTS    9  9  9  9  9  9  9  9 10 10 10 10 10 10 10 10 11 11 11 11
CENTRE ASSIGNMENTS   11 11 11 11 11 11 11 11 11 11 11 11 11 11 11 11 11 11 11 11
CENTRE ASSIGNMENTS   11 11 11 11 11 11 11 11 11 11 11 11 11 11 11 11 11 11 12 12
CENTRE ASSIGNMENTS   12 12 12 12 12 12 13 13 13 13 13 13 13 13 14 14 14 14 14 14
CENTRE ASSIGNMENTS   14 14 14 14 14 14 14 14 14 14 14 14 14 14 14 14 14 14 14 14
CENTRE ASSIGNMENTS   14 14 14 14 14 14 14 14 14 14 14 14 14 14 14 14
TYPE ASSIGNMENTS      1  1  1  1  1  1  1  1  1  2  2  2  3  3  3  4  4  4  1  2
TYPE ASSIGNMENTS      3  4  1  2  3  4  1  2  3  4  5  6  7  8  9 10  5  6  7  8
TYPE ASSIGNMENTS      9 10  1  1  1  1  1  1  1  1  1  2  2  2  3  3  3  4  4  4
TYPE ASSIGNMENTS      1  2  3  4  1  2  3  4  1  2  3  4  5  6  7  8  9 10  5  6
TYPE ASSIGNMENTS      7  8  9 10  1  1  1  1  1  1  1  1  1  2  2  2  3  3  3  4
TYPE ASSIGNMENTS      4  4  1  2  3  4  1  2  3  4  1  2  3  4  5  6  7  8  9 10
TYPE ASSIGNMENTS      5  6  7  8  9 10  1  1  1  1  1  2  3  4  1  1  1  1  1  2
TYPE ASSIGNMENTS      3  4  1  1  1  1  1  2  3  4  1  1  1  1  1  1  1  1  1  2
TYPE ASSIGNMENTS      2  2  3  3  3  4  4  4  1  2  3  4  1  2  3  4  1  2  3  4
TYPE ASSIGNMENTS      5  6  7  8  9 10  5  6  7  8  9 10  1  1  1  1  1  2  3  4
TYPE ASSIGNMENTS      1  1  1  1  1  2  3  4  1  1  1  1  1  2  3  4  1  1  1  1
TYPE ASSIGNMENTS      1  1  1  1  1  2  2  2  3  3  3  4  4  4  1  2  3  4  1  2
TYPE ASSIGNMENTS      3  4  1  2  3  4  5  6  7  8  9 10  5  6  7  8  9 10  1  1
TYPE ASSIGNMENTS      1  1  1  2  3  4  1  1  1  1  1  2  3  4  1  1  1  1  1  1
TYPE ASSIGNMENTS      1  1  1  2  2  2  3  3  3  4  4  4  1  2  3  4  1  2  3  4
TYPE ASSIGNMENTS      1  2  3  4  5  6  7  8  9 10  5  6  7  8  9 10
EXPONENTS  0.8588500D+04 0.1297230D+04 0.2992960D+03 0.8737710D+02 0.2567890D+02
EXPONENTS  0.3740040D+01 0.4211750D+02 0.9628370D+01 0.2853320D+01 0.4211750D+02
EXPONENTS  0.9628370D+01 0.2853320D+01 0.4211750D+02 0.9628370D+01 0.2853320D+01
EXPONENTS  0.4211750D+02 0.9628370D+01 0.2853320D+01 0.9056610D+00 0.9056610D+00
EXPONENTS  0.9056610D+00 0.9056610D+00 0.2556110D+00 0.2556110D+00 0.2556110D+00
EXPONENTS  0.2556110D+00 0.8450000D-01 0.8450000D-01 0.8450000D-01 0.8450000D-01
EXPONENTS  0.2584000D+01 0.2584000D+01 0.2584000D+01 0.2584000D+01 0.2584000D+01
EXPONENTS  0.2584000D+01 0.6460000D+00 0.6460000D+00 0.6460000D+00 0.6460000D+00
EXPONENTS  0.6460000D+00 0.6460000D+00 0.4563240D+04 0.6820240D+03 0.1549730D+03
EXPONENTS  0.4445530D+02 0.1302900D+02 0.1827730D+01 0.2096420D+02 0.4803310D+01
EXPONENTS  0.1459330D+01 0.2096420D+02 0.4803310D+01 0.1459330D+01 0.2096420D+02
EXPONENTS  0.4803310D+01 0.1459330D+01 0.2096420D+02 0.4803310D+01 0.1459330D+01
EXPONENTS  0.4834560D+00 0.4834560D+00 0.4834560D+00 0.4834560D+00 0.1455850D+00
EXPONENTS  0.1455850D+00 0.1455850D+00 0.1455850D+00 0.4380000D-01 0.4380000D-01
EXPONENTS  0.4380000D-01 0.4380000D-01 0.1252000D+01 0.1252000D+01 0.1252000D+01
EXPONENTS  0.1252000D+01 0.1252000D+01 0.1252000D+01 0.3130000D+00 0.3130000D+00
EXPONENTS  0.3130000D+00 0.3130000D+00 0.3130000D+00 0.3130000D+00 0.4563240D+04
EXPONENTS  0.6820240D+03 0.1549730D+03 0.4445530D+02 0.1302900D+02 0.1827730D+01
EXPONENTS  0.2096420D+02 0.4803310D+01 0.1459330D+01 0.2096420D+02 0.4803310D+01
EXPONENTS  0.1459330D+01 0.2096420D+02 0.4803310D+01 0.1459330D+01 0.2096420D+02
EXPONENTS  0.4803310D+01 0.1459330D+01 0.4834560D+00 0.4834560D+00 0.4834560D+00
EXPONENTS  0.4834560D+00 0.1455850D+00 0.1455850D+00 0.1455850D+00 0.1455850D+00
EXPONENTS  0.4380000D-01 0.4380000D-01 0.4380000D-01 0.4380000D-01 0.1252000D+01
EXPONENTS  0.1252000D+01 0.1252000D+01 0.1252000D+01 0.1252000D+01 0.1252000D+01
EXPONENTS  0.3130000D+00 0.3130000D+00 0.3130000D+00 0.3130000D+00 0.3130000D+00
EXPONENTS  0.3130000D+00 0.3386500D+02 0.5094790D+01 0.1158790D+01 0.3258400D+00
EXPONENTS  0.1027410D+00 0.7500000D+00 0.7500000D+00 0.7500000D+00 0.3386500D+02
EXPONENTS  0.5094790D+01 0.1158790D+01 0.3258400D+00 0.1027410D+00 0.7500000D+00
EXPONENTS  0.7500000D+00 0.7500000D+00 0.3386500D+02 0.5094790D+01 0.1158790D+01
EXPONENTS  0.3258400D+00 0.1027410D+00 0.7500000D+00 0.7500000D+00 0.7500000D+00
EXPONENTS  0.4563240D+04 0.6820240D+03 0.1549730D+03 0.4445530D+02 0.1302900D+02
EXPONENTS  0.1827730D+01 0.2096420D+02 0.4803310D+01 0.1459330D+01 0.2096420D+02
EXPONENTS  0.4803310D+01 0.1459330D+01 0.2096420D+02 0.4803310D+01 0.1459330D+01
EXPONENTS  0.2096420D+02 0.4803310D+01 0.1459330D+01 0.4834560D+00 0.4834560D+00
EXPONENTS  0.4834560D+00 0.4834560D+00 0.1455850D+00 0.1455850D+00 0.1455850D+00
EXPONENTS  0.1455850D+00 0.4380000D-01 0.4380000D-01 0.4380000D-01 0.4380000D-01
EXPONENTS  0.1252000D+01 0.1252000D+01 0.1252000D+01 0.1252000D+01 0.1252000D+01
EXPONENTS  0.1252000D+01 0.3130000D+00 0.3130000D+00 0.3130000D+00 0.3130000D+00
EXPONENTS  0.3130000D+00 0.3130000D+00 0.3386500D+02 0.5094790D+01 0.1158790D+01
EXPONENTS  0.3258400D+00 0.1027410D+00 0.7500000D+00 0.7500000D+00 0.7500000D+00
EXPONENTS  0.3386500D+02 0.5094790D+01 0.1158790D+01 0.3258400D+00 0.1027410D+00
EXPONENTS  0.7500000D+00 0.7500000D+00 0.7500000D+00 0.3386500D+02 0.5094790D+01
EXPONENTS  0.1158790D+01 0.3258400D+00 0.1027410D+00 0.7500000D+00 0.7500000D+00
EXPONENTS  0.7500000D+00 0.4563240D+04 0.6820240D+03 0.1549730D+03 0.4445530D+02
EXPONENTS  0.1302900D+02 0.1827730D+01 0.2096420D+02 0.4803310D+01 0.1459330D+01
EXPONENTS  0.2096420D+02 0.4803310D+01 0.1459330D+01 0.2096420D+02 0.4803310D+01
EXPONENTS  0.1459330D+01 0.2096420D+02 0.4803310D+01 0.1459330D+01 0.4834560D+00
EXPONENTS  0.4834560D+00 0.4834560D+00 0.4834560D+00 0.1455850D+00 0.1455850D+00
EXPONENTS  0.1455850D+00 0.1455850D+00 0.4380000D-01 0.4380000D-01 0.4380000D-01
EXPONENTS  0.4380000D-01 0.1252000D+01 0.1252000D+01 0.1252000D+01 0.1252000D+01
EXPONENTS  0.1252000D+01 0.1252000D+01 0.3130000D+00 0.3130000D+00 0.3130000D+00
EXPONENTS  0.3130000D+00 0.3130000D+00 0.3130000D+00 0.3386500D+02 0.5094790D+01
EXPONENTS  0.1158790D+01 0.3258400D+00 0.1027410D+00 0.7500000D+00 0.7500000D+00
EXPONENTS  0.7500000D+00 0.3386500D+02 0.5094790D+01 0.1158790D+01 0.3258400D+00
EXPONENTS  0.1027410D+00 0.7500000D+00 0.7500000D+00 0.7500000D+00 0.8588500D+04
EXPONENTS  0.1297230D+04 0.2992960D+03 0.8737710D+02 0.2567890D+02 0.3740040D+01
EXPONENTS  0.4211750D+02 0.9628370D+01 0.2853320D+01 0.4211750D+02 0.9628370D+01
EXPONENTS  0.2853320D+01 0.4211750D+02 0.9628370D+01 0.2853320D+01 0.4211750D+02
EXPONENTS  0.9628370D+01 0.2853320D+01 0.9056610D+00 0.9056610D+00 0.9056610D+00
EXPONENTS  0.9056610D+00 0.2556110D+00 0.2556110D+00 0.2556110D+00 0.2556110D+00
EXPONENTS  0.8450000D-01 0.8450000D-01 0.8450000D-01 0.8450000D-01 0.2584000D+01
EXPONENTS  0.2584000D+01 0.2584000D+01 0.2584000D+01 0.2584000D+01 0.2584000D+01
EXPONENTS  0.6460000D+00 0.6460000D+00 0.6460000D+00 0.6460000D+00 0.6460000D+00
EXPONENTS  0.6460000D+00
MO    1     MO 0.0        OCC NO =    2.0000000  ORB. ENERGY =  -19.127055
  0.64320005D+00  0.11829442D+01  0.19362263D+01  0.26093105D+01  0.25811638D+01
  0.28729090D+00  0.61026973D+00  0.16312788D+01 -0.23299521D-02 -0.43686490D-02
 -0.44854914D-02 -0.33898817D-02  0.46321490D-02  0.47560388D-02  0.35943461D-02
 -0.20552753D-03 -0.21102449D-03 -0.15948042D-03  0.93214691D-02 -0.31033274D-03
  0.29941164D-03 -0.15429098D-04 -0.41447921D-02  0.89166720D-03 -0.93245795D-03
  0.43644900D-04 -0.39154742D-03  0.10475255D-03 -0.96731067D-04  0.48769006D-05
  0.63107030D-03  0.74239848D-03 -0.13734688D-02 -0.39826949D-02  0.18823464D-03
 -0.19413951D-03 -0.15060767D-03 -0.20951153D-03  0.36011921D-03  0.72639427D-03
 -0.49784597D-04  0.37542566D-04 -0.33344600D-05 -0.62074068D-05 -0.10211126D-04
 -0.13711828D-04 -0.12910203D-04 -0.10609173D-05  0.14036191D-04  0.37296787D-04
 -0.50278674D-07  0.49057219D-03  0.45905471D-03  0.35555561D-03 -0.48676393D-03
 -0.45549111D-03 -0.35279547D-03  0.24389363D-04  0.22822435D-04  0.17676858D-04
  0.16761091D-03  0.18583103D-03 -0.19901137D-03  0.72680070D-05  0.22469066D-02
  0.86455025D-03 -0.99577324D-03  0.39821008D-04  0.59268464D-04 -0.40514844D-04
  0.27638270D-04 -0.17672801D-05 -0.30985508D-03 -0.24053364D-03  0.55038872D-03
  0.31406817D-03 -0.91031602D-04  0.10480672D-05  0.16427232D-03  0.70170401D-04
 -0.23444272D-03  0.37961307D-03  0.43150894D-04  0.28327023D-04 -0.90790908D-05
 -0.16901570D-04 -0.27802924D-04 -0.37334661D-04 -0.35151991D-04 -0.28886731D-05
  0.47386763D-04  0.12591550D-03 -0.16974289D-06  0.11018146D-03  0.10310270D-03
  0.79857027D-04 -0.27614508D-03 -0.25840375D-03 -0.20014370D-03  0.32335121D-04
  0.30257706D-04  0.23435763D-04 -0.10440685D-03 -0.83035397D-05  0.34362601D-03
 -0.33192485D-04 -0.50864082D-05 -0.28214008D-03  0.16446093D-04 -0.23608461D-04
 -0.21194678D-04  0.15298012D-04 -0.63963654D-05  0.23564220D-05  0.62480178D-04
 -0.95980333D-04  0.33500155D-04 -0.39238135D-03 -0.66370682D-04 -0.22634479D-04
  0.11217710D-03 -0.11757808D-03  0.54009790D-05  0.38976040D-03  0.36848800D-04
  0.11202231D-04 -0.32354935D-05 -0.58363687D-05 -0.86043458D-05 -0.30787208D-04
  0.13931373D-03  0.10311619D-03 -0.11764945D-03 -0.15424896D-04 -0.11580867D-04
 -0.20890231D-04 -0.30797707D-04  0.86290105D-04 -0.30699242D-04  0.52459319D-04
 -0.89878066D-05  0.57172345D-04 -0.12264479D-04 -0.22123370D-04 -0.32615678D-04
  0.13909982D-03 -0.25600492D-04  0.19229193D-04 -0.50255542D-04 -0.79599288D-04
 -0.10585747D-04 -0.19706350D-04 -0.32416760D-04 -0.43530269D-04 -0.40985389D-04
 -0.33680423D-05  0.54506293D-04  0.14483343D-03 -0.19524558D-06  0.31909375D-03
  0.29859313D-03  0.23127192D-03 -0.72903294D-04 -0.68219521D-04 -0.52838656D-04
 -0.11822003D-04 -0.11062482D-04 -0.85683201D-05 -0.11542716D-03 -0.42303877D-03
 -0.50457411D-04  0.12792175D-04 -0.21521773D-03 -0.83354332D-04  0.23212590D-03
  0.77189228D-05 -0.53670133D-04  0.46145906D-05 -0.83353590D-05 -0.16101304D-05
 -0.11600644D-03  0.61480211D-04  0.54526231D-04 -0.36416655D-03 -0.21582967D-04
 -0.74354182D-04 -0.13304324D-03  0.14450933D-03 -0.11466096D-04  0.35529457D-03
 -0.17313399D-04  0.29992602D-04 -0.15453685D-04 -0.27876243D-04 -0.41096930D-04
  0.15055502D-03 -0.35750839D-04  0.45835301D-04 -0.66880770D-04 -0.56838694D-04
 -0.15465174D-04 -0.27896967D-04 -0.41127483D-04  0.19601371D-03 -0.30454411D-04
  0.71038252D-04 -0.27840482D-04  0.91996756D-04 -0.81517974D-05 -0.14704679D-04
 -0.21678573D-04 -0.72796780D-04  0.12880073D-03  0.85823530D-04 -0.14451246D-03
  0.23589791D-04  0.25744561D-05  0.47925890D-05  0.78837638D-05  0.10586572D-04
  0.99676563D-05  0.81910867D-06 -0.10263710D-04 -0.27272600D-04  0.36765371D-07
 -0.37204115D-04 -0.34813885D-04 -0.26964699D-04  0.14857775D-03  0.13903216D-03
  0.10768578D-03 -0.11099160D-04 -0.10386079D-04 -0.80444194D-05  0.12961386D-03
  0.59055417D-04  0.20413924D-04  0.24848822D-05  0.35079463D-03  0.27823023D-04
  0.15705821D-03 -0.70505707D-05 -0.22208364D-04 -0.83366550D-07 -0.50102337D-05
  0.22114339D-06  0.38006803D-04 -0.19986761D-03  0.16186081D-03 -0.13285163D-03
  0.12572613D-04  0.46254479D-04 -0.45075433D-04  0.22130359D-04  0.22945074D-04
  0.12748749D-04 -0.10430547D-05 -0.45595538D-05  0.66614984D-05  0.12016393D-04
  0.17715330D-04 -0.10993356D-03  0.21649369D-04 -0.16120005D-04 -0.11824346D-03
 -0.44057107D-04  0.76889681D-05  0.13869802D-04  0.20447743D-04 -0.12571502D-03
  0.22827465D-04 -0.15557612D-04 -0.11707945D-03  0.66631746D-04  0.16618663D+00
  0.30564287D+00  0.50027191D+00  0.67417984D+00  0.66690746D+00  0.74228703D-01
  0.15770170D+00  0.42154382D+00 -0.60209016D-03 -0.48163645D-03 -0.49451813D-03
 -0.37372894D-03 -0.16040032D-02 -0.16469033D-02 -0.12446367D-02  0.10545994D-03
  0.10828054D-03  0.81832328D-04  0.22911812D-02 -0.67876839D-04 -0.88461394D-04
  0.93296564D-05 -0.83615015D-03  0.11198904D-03  0.23900274D-03 -0.17064646D-04
 -0.16007206D-05  0.48162945D-05  0.38824787D-05 -0.11324999D-05 -0.20631401D-03
  0.57282297D-03 -0.36650896D-03  0.69039398D-03 -0.54211692D-04 -0.12629669D-03
  0.46872084D-04 -0.98908883D-04  0.52036798D-04 -0.14873657D-03  0.11400912D-04
  0.19713492D-04
MO    2     MO 0.0        OCC NO =    2.0000000  ORB. ENERGY =  -19.127053
 -0.16618719D+00 -0.30564391D+00 -0.50027362D+00 -0.67418215D+00 -0.66690974D+00
 -0.74228957D-01 -0.15768458D+00 -0.42149806D+00  0.60202480D-03  0.10760122D-02
  0.11047908D-02  0.83493864D-03 -0.11905932D-02 -0.12224364D-02 -0.92384855D-03
  0.58597130D-04  0.60164348D-04  0.45468824D-04 -0.23728532D-02  0.11368570D-03
 -0.86774768D-04 -0.79099055D-06  0.87723145D-03 -0.15559255D-03  0.12623150D-03
 -0.28722439D-05 -0.30113031D-03 -0.12786508D-04 -0.67511153D-04  0.86671296D-06
 -0.16301589D-03 -0.28014609D-04  0.19103050D-03  0.10831096D-02 -0.58941757D-04
  0.11869182D-04  0.57009979D-04 -0.22965981D-04 -0.34043998D-04 -0.17269727D-03
  0.13924785D-04  0.53931081D-05  0.19631028D-06  0.36544981D-06  0.60116151D-06
  0.80725901D-06  0.76006479D-06  0.62459584D-07  0.12800696D-05  0.34013847D-05
 -0.45853042D-08 -0.12985012D-03 -0.12150772D-03 -0.94112423D-04  0.14041878D-03
  0.13139738D-03  0.10177235D-03  0.21974000D-05  0.20562250D-05  0.15926257D-05
 -0.10843351D-03 -0.27060056D-04  0.23389771D-04 -0.75381812D-05 -0.10547926D-03
 -0.95007247D-04  0.11148422D-03 -0.40762218D-05  0.16926823D-03  0.16005218D-03
  0.95917348D-04  0.40115686D-05  0.26923283D-04  0.12798949D-03 -0.15491277D-03
 -0.92043828D-04  0.28844769D-04 -0.45765147D-05  0.33957865D-04 -0.61226345D-04
  0.27268479D-04 -0.12539902D-03 -0.80297023D-05 -0.63845205D-05  0.29090014D-05
  0.54153760D-05  0.89082427D-05  0.11962275D-04  0.11262933D-04  0.92555016D-06
 -0.14608412D-04 -0.38817286D-04  0.52328413D-07 -0.24796746D-04 -0.23203645D-04
 -0.17972120D-04  0.67064510D-04  0.62755858D-04  0.48606838D-04 -0.86305626D-05
 -0.80760802D-05 -0.62552363D-05  0.30656625D-04 -0.26154394D-04 -0.10354154D-03
  0.10083854D-04  0.95626660D-04  0.31747069D-04  0.91269483D-05  0.99706613D-05
 -0.53408230D-03  0.18223702D-05  0.55927140D-04  0.10578252D-05 -0.42966472D-04
  0.82220603D-04 -0.39254132D-04  0.48712906D-04  0.14084394D-04  0.10999427D-04
 -0.34223927D-04  0.70113592D-05  0.27212568D-04 -0.70636110D-04 -0.58716903D-05
 -0.12627163D-05  0.78036381D-05  0.14076650D-04  0.20752692D-04  0.17755444D-04
 -0.45060174D-04 -0.67555991D-04  0.17416938D-04  0.24195830D-05  0.58067796D-05
  0.10474602D-04  0.15442324D-04 -0.74285021D-04  0.10127494D-04 -0.32661846D-04
  0.26167631D-04 -0.14485599D-04  0.53863973D-05  0.97162923D-05  0.14324376D-04
 -0.95022386D-04  0.24825268D-05 -0.27967317D-04  0.36572486D-04  0.29305121D-04
  0.13105611D-05  0.24397311D-05  0.40133347D-05  0.53892349D-05  0.50741679D-05
  0.41697815D-06 -0.70460034D-05 -0.18722550D-04  0.25239306D-07 -0.25907391D-04
 -0.24242935D-04 -0.18777090D-04  0.59360564D-04  0.55546863D-04  0.43023192D-04
  0.69709933D-05  0.65231322D-05  0.50524181D-05  0.87473162D-05  0.27862994D-04
 -0.39060450D-04 -0.88879772D-05  0.13013738D-04  0.51337862D-06 -0.34014554D-04
 -0.81450534D-05  0.54761880D-03  0.47615987D-04  0.10676743D-04  0.33254822D-05
  0.36059610D-04 -0.63784661D-05 -0.29681144D-04  0.56725823D-04  0.59399893D-05
  0.11045163D-04  0.12065027D-04 -0.28293541D-04  0.16228515D-04 -0.97200869D-04
  0.21856086D-05 -0.11033318D-04  0.12325945D-05  0.22234246D-05  0.32779139D-05
 -0.19801328D-04 -0.11838324D-04 -0.37024026D-06  0.19121044D-04  0.12352044D-04
 -0.73671116D-08 -0.13289218D-07 -0.19591811D-07 -0.36741676D-04 -0.21804858D-04
 -0.15607046D-04  0.10598205D-04 -0.25347999D-04  0.14767778D-06  0.26638965D-06
  0.39272856D-06  0.20705705D-04 -0.58234824D-06 -0.24680313D-04  0.21368257D-04
 -0.56864362D-05 -0.13188625D-05 -0.24551850D-05 -0.40387563D-05 -0.54233719D-05
 -0.51063091D-05 -0.41961941D-06  0.40748451D-05  0.10827626D-04 -0.14596397D-07
  0.12914676D-03  0.12084954D-03  0.93602643D-04  0.61474925D-03  0.57525383D-03
  0.44555633D-03 -0.40750280D-04 -0.38132222D-04 -0.29534880D-04  0.29176725D-03
  0.14352755D-05 -0.19569723D-03  0.12521143D-04  0.81689414D-03  0.42057324D-04
  0.29187271D-03 -0.19140214D-04 -0.28281883D-03  0.16361435D-04 -0.40556882D-04
  0.19521837D-05  0.24666739D-03 -0.86632779D-03  0.61966040D-03 -0.85248964D-03
  0.64375974D-04  0.20046038D-03 -0.10157420D-03 -0.20521669D-04  0.12209587D-03
  0.59753308D-04  0.12961300D-05  0.17357669D-04  0.50069613D-05  0.90318437D-05
  0.13315318D-04 -0.41277916D-03  0.10240351D-03 -0.11620276D-03 -0.40735791D-03
 -0.14032572D-03  0.49535850D-05  0.89355607D-05  0.13173372D-04 -0.41336492D-03
  0.10359814D-03 -0.11205695D-03 -0.38631855D-03  0.19328141D-03  0.64319788D+00
  0.11829402D+01  0.19362198D+01  0.26093017D+01  0.25811551D+01  0.28728993D+00
  0.61038478D+00  0.16315863D+01 -0.23303913D-02 -0.20197923D-02 -0.20738129D-02
 -0.15672710D-02 -0.62562298D-02 -0.64235567D-02 -0.48545622D-02  0.42370210D-03
  0.43503429D-03  0.32877440D-03  0.86826276D-02 -0.14040851D-03 -0.27413786D-03
  0.20214256D-04 -0.26165307D-02  0.19956419D-03  0.47531299D-03 -0.33451009D-04
  0.43048732D-03 -0.62339782D-05  0.24720132D-04 -0.63645923D-06 -0.83614208D-03
  0.19448959D-02 -0.11087538D-02  0.21503761D-02 -0.14193943D-03 -0.41595822D-03
  0.15001711D-03 -0.19624810D-03  0.46230985D-04 -0.28292874D-03  0.14906367D-04
  0.34364630D-04
MO    3     MO 0.0        OCC NO =    2.0000000  ORB. ENERGY =  -10.276287
 -0.11065206D-03 -0.20350623D-03 -0.33309611D-03 -0.44888925D-03 -0.44404708D-03
 -0.49423707D-04 -0.15942010D-03 -0.42613719D-03  0.60865086D-06 -0.28148407D-02
 -0.28901254D-02 -0.21841939D-02  0.28698967D-02  0.29466539D-02  0.22269150D-02
 -0.13885594D-03 -0.14256973D-03 -0.10774617D-03  0.10546570D-02  0.18114637D-02
 -0.18396227D-02  0.91493754D-04 -0.38300574D-02  0.15372200D-02 -0.15378996D-02
  0.63175421D-04  0.38905879D-03 -0.11938980D-03  0.19487077D-03 -0.22372342D-05
  0.54243881D-03  0.58056300D-03 -0.11230018D-02 -0.39798046D-02  0.15836371D-03
 -0.17051497D-03 -0.58168027D-03 -0.59936581D-03  0.11810461D-02  0.36877592D-02
 -0.16137582D-03  0.16354027D-03  0.43813144D+00  0.81562235D+00  0.13416911D+01
  0.18016660D+01  0.16963364D+01  0.13939926D+00  0.37084934D+00  0.98541614D+00
 -0.13284098D-02 -0.11969111D-03 -0.11200139D-03 -0.86749403D-04  0.63613718D-04
  0.59526766D-04  0.46105781D-04 -0.16532135D-04 -0.15470005D-04 -0.11982117D-04
  0.86334711D-02  0.20956910D-02 -0.21398685D-02  0.10863180D-03  0.61782724D-04
  0.55183465D-03 -0.55516450D-03  0.17374871D-04  0.92778466D-03 -0.41348598D-03
 -0.16975193D-03 -0.16824190D-04  0.11550456D-02  0.11411427D-02 -0.22961883D-02
 -0.38761603D-02  0.32352992D-03 -0.15580904D-03  0.11315196D-03  0.21493872D-03
 -0.32809068D-03 -0.93900819D-03  0.48025951D-04 -0.51611286D-04  0.56831079D-03
  0.10579633D-02  0.17403397D-02  0.23369841D-02  0.22003586D-02  0.18081811D-03
  0.46699226D-03  0.12408859D-02 -0.16728008D-05 -0.37608052D-03 -0.35191870D-03
 -0.27257464D-03 -0.12116248D-02 -0.11337823D-02 -0.87815823D-03 -0.38866726D-04
 -0.36369679D-04 -0.28169722D-04  0.21762456D-03  0.27074380D-03  0.62075684D-03
  0.34607471D-04  0.14927746D-03 -0.93503133D-04  0.10312359D-03  0.15262193D-04
  0.81156785D-03  0.31493097D-05 -0.85184104D-04  0.17324523D-07  0.21305125D-04
  0.39126903D-04 -0.60432028D-04 -0.95496093D-04  0.87136679D-06 -0.82817905D-06
  0.78566675D-04 -0.27177399D-03  0.19320731D-03 -0.26091227D-03 -0.25819074D-04
 -0.27510604D-06 -0.19239074D-04 -0.34704545D-04 -0.51163648D-04 -0.16904385D-03
  0.76964970D-04  0.15437362D-03  0.93652532D-04  0.79276476D-05 -0.25376423D-04
 -0.45775447D-04 -0.67485074D-04 -0.17199385D-03 -0.58574877D-04 -0.12204461D-03
 -0.22001610D-04 -0.13321989D-03 -0.29360986D-04 -0.52963030D-04 -0.78081467D-04
 -0.22684070D-03 -0.60759098D-04 -0.11600561D-03 -0.15901394D-04  0.16883288D-03
  0.59789569D-03  0.11130383D-02  0.18309376D-02  0.24586419D-02  0.23149040D-02
  0.19023107D-03  0.47802172D-03  0.12701932D-02 -0.17123092D-05  0.11519652D-02
  0.10779556D-02  0.83491831D-03  0.29312347D-03  0.27429135D-03  0.21244925D-03
  0.74392013D-04  0.69612595D-04  0.53917645D-04  0.28783555D-03 -0.52040769D-03
 -0.14744774D-03 -0.45586979D-04  0.11051976D-03 -0.12332776D-03  0.10832274D-03
 -0.80953442D-05 -0.20469244D-02 -0.19713118D-03 -0.50789634D-04 -0.98264900D-05
  0.87925631D-04 -0.30367276D-04 -0.57558354D-04 -0.91362579D-04  0.17833922D-04
 -0.30732930D-05 -0.26751212D-03  0.58505885D-04  0.20900624D-03 -0.23932100D-03
 -0.35259826D-04 -0.69810215D-05 -0.16627930D-04 -0.29994413D-04 -0.44219671D-04
 -0.27460933D-03  0.95547242D-04 -0.41806748D-05  0.12978035D-03  0.13663876D-03
 -0.20294886D-04 -0.36609080D-04 -0.53971433D-04 -0.29777269D-03  0.10982263D-03
  0.21705851D-04  0.11367021D-03 -0.16715819D-03 -0.25598444D-04 -0.46175941D-04
 -0.68075508D-04 -0.60614614D-04  0.43894329D-04 -0.51656984D-04 -0.74806280D-04
 -0.11293350D-04  0.18940076D-04  0.35258709D-04  0.58000245D-04  0.77884594D-04
  0.73331281D-04  0.60261196D-05  0.99474359D-05  0.26432200D-04 -0.35632452D-07
 -0.56164702D-05 -0.52556323D-05 -0.40706903D-05 -0.32977059D-04 -0.30858402D-04
 -0.23901025D-04  0.27304225D-05  0.25550027D-05  0.19789484D-05  0.29827119D-04
 -0.27373226D-04  0.31463911D-04 -0.22280455D-05 -0.37450481D-04  0.39718860D-04
  0.44856112D-04 -0.14914230D-05  0.25023027D-03 -0.53335869D-04 -0.18528249D-05
  0.22348869D-05  0.13582349D-03 -0.93097119D-04 -0.42726374D-04 -0.94202693D-05
  0.17775533D-05  0.65885449D-05 -0.30695675D-04  0.46906412D-04 -0.16210737D-04
 -0.90618799D-05 -0.12769693D-05 -0.98801643D-05 -0.15835356D-04 -0.28564722D-04
 -0.42111930D-04  0.14873852D-03 -0.66586896D-04 -0.79890227D-04  0.30601827D-04
  0.46964579D-04 -0.15980492D-04 -0.28826528D-04 -0.42497901D-04  0.14456201D-03
 -0.70333882D-04 -0.80071793D-04  0.25168245D-04 -0.46818494D-04  0.88513859D-06
  0.16279066D-05  0.26645343D-05  0.35907979D-05  0.35520640D-05  0.39535486D-06
  0.92055700D-05  0.24606908D-04 -0.35145995D-07 -0.78342352D-04 -0.80437669D-04
 -0.60790258D-04 -0.11039343D-04 -0.11334597D-04 -0.85660500D-05  0.37873748D-05
  0.38886706D-05  0.29388381D-05 -0.49576312D-04  0.82471693D-04  0.29524470D-04
 -0.48712380D-05 -0.15987002D-04 -0.31529053D-04  0.93752673D-07  0.27533830D-05
 -0.77257984D-04  0.26099536D-04  0.21610489D-05 -0.25210481D-05  0.30922306D-04
 -0.51848429D-04  0.20926124D-04  0.25879543D-04 -0.43372366D-05  0.11914678D-04
 -0.15447795D-04  0.23682277D-04 -0.82344819D-05 -0.21371259D-04  0.23001324D-05
 -0.56360880D-05
MO    4     MO 0.0        OCC NO =    2.0000000  ORB. ENERGY =  -10.256330
 -0.67770652D-06 -0.12464069D-05 -0.20401012D-05 -0.27492951D-05 -0.27196384D-05
 -0.30270352D-06 -0.93800116D-05 -0.25073198D-04  0.35811997D-07  0.16864847D-04
  0.17315908D-04  0.13086387D-04  0.57989966D-04  0.59540945D-04  0.44997691D-04
 -0.60377352D-05 -0.61992183D-05 -0.46850199D-05  0.64142684D-04  0.91500695D-05
 -0.53839315D-04  0.46460930D-05 -0.10258976D-03 -0.56112657D-04  0.18352785D-04
 -0.13497929D-05  0.17960672D-03  0.13535573D-03  0.71313591D-04  0.17321873D-05
 -0.82896589D-05 -0.75629065D-04  0.83918724D-04 -0.13659749D-03  0.13745288D-04
  0.92649500D-05 -0.61635199D-05  0.21320421D-04 -0.15156901D-04  0.72274056D-04
 -0.45493081D-05 -0.18870056D-05 -0.18084441D-04 -0.33665866D-04 -0.55380033D-04
 -0.74366090D-04 -0.70018477D-04 -0.57538843D-05 -0.24835115D-04 -0.65991551D-04
  0.88961221D-07 -0.65161784D-04 -0.60975375D-04 -0.47227785D-04  0.76468875D-05
  0.71556026D-05  0.55422908D-05  0.40527543D-06  0.37923795D-06  0.29373445D-06
  0.55369332D-04  0.78717486D-04 -0.30440721D-04  0.35646303D-06 -0.15766541D-03
 -0.25062357D-03 -0.22536783D-03 -0.85258978D-05  0.19083668D-03 -0.27215478D-03
 -0.19336543D-03 -0.96816109D-05  0.18091486D-04  0.30729056D-04 -0.48820542D-04
 -0.25237026D-04 -0.48244445D-05 -0.12229458D-05  0.33486349D-04 -0.61585349D-04
  0.28099000D-04 -0.38928147D-04  0.38291962D-05  0.45263785D-06  0.85346958D-06
  0.15888129D-05  0.26135822D-05  0.35096023D-05  0.33044228D-05  0.27154642D-06
 -0.56326382D-06 -0.14966974D-05  0.20176527D-08 -0.10999204D-04 -0.10292545D-04
 -0.79719741D-05  0.10032015D-03  0.93874948D-04  0.72709776D-04 -0.21239075D-05
 -0.19874541D-05 -0.15393600D-05 -0.26322693D-04 -0.31648934D-05 -0.12445131D-03
  0.24721747D-05  0.38763813D-03 -0.51122682D-04 -0.13463018D-03  0.72219086D-06
  0.94779794D-03  0.22494475D-04 -0.89415990D-04 -0.66805058D-06  0.43140886D-04
 -0.30614981D-04 -0.12525905D-04 -0.39703467D-04  0.17929172D-05 -0.26757362D-05
 -0.48934023D-04  0.49298775D-04 -0.36475177D-06  0.10284579D-04  0.89653265D-07
  0.57547773D-05  0.12234563D-04  0.22069406D-04  0.32536121D-04 -0.87078859D-05
 -0.34090277D-05 -0.62185373D-04  0.34516278D-04  0.93838177D-06  0.69605506D-06
  0.12555840D-05  0.18510618D-05 -0.24384679D-04 -0.65011134D-04 -0.77679882D-05
  0.16074065D-04  0.68720295D-05 -0.65568119D-06 -0.11827553D-05 -0.17436931D-05
 -0.30332363D-04 -0.64165754D-04 -0.13520663D-05  0.14642819D-04  0.53403758D-05
  0.41171840D-05  0.76645201D-05  0.12608064D-04  0.16930513D-04  0.15940716D-04
  0.13099548D-05 -0.15389016D-05 -0.40891498D-05  0.55124596D-08  0.68229060D-05
  0.63845589D-05  0.49450877D-05  0.26090613D-04  0.24414385D-04  0.18909885D-04
 -0.77482373D-05 -0.72504411D-05 -0.56157469D-05  0.43603310D-04 -0.37753176D-05
 -0.44291760D-04  0.81968627D-05 -0.30098179D-03 -0.91501775D-04 -0.46314749D-04
 -0.57872335D-05 -0.11435495D-02 -0.10711253D-03 -0.13727366D-05 -0.65861169D-05
  0.24682565D-04 -0.18529962D-04 -0.61526026D-05  0.43337007D-04  0.52454399D-05
  0.91945684D-05 -0.14611400D-04  0.31380250D-04 -0.16768850D-04 -0.10085089D-04
  0.10492407D-05 -0.10396533D-04 -0.35499029D-05 -0.64035184D-05 -0.94404741D-05
  0.72433584D-04  0.37118494D-05  0.22374209D-04 -0.22627843D-04 -0.18286177D-04
 -0.22044618D-05 -0.39765346D-05 -0.58624602D-05  0.64254403D-04  0.53263792D-05
  0.17604933D-04 -0.13449332D-04  0.27934481D-04  0.13726394D-05  0.24760456D-05
  0.36503438D-05 -0.61834656D-04  0.50132848D-04 -0.12682770D-04 -0.26395948D-04
  0.12572478D-05  0.43810335D+00  0.81557005D+00  0.13416051D+01  0.18015504D+01
  0.16962276D+01  0.13939032D+00  0.37079601D+00  0.98527443D+00 -0.13282188D-02
  0.16912857D-03  0.15826267D-03  0.12258056D-03  0.55916052D-03  0.52323648D-03
  0.40526688D-03 -0.37324607D-04 -0.34926636D-04 -0.27052030D-04  0.86687597D-02
  0.69316364D-03  0.21507814D-02 -0.14581407D-03 -0.73413718D-04  0.13314496D-03
  0.28094595D-03 -0.20671203D-04 -0.17851500D-03  0.10144708D-04  0.17801197D-05
  0.17471018D-06 -0.22208122D-02  0.25834292D-02 -0.36261702D-03  0.36407993D-02
 -0.19214062D-03 -0.42066432D-03 -0.38260782D-03  0.29983947D-03  0.82768347D-04
  0.43909801D-03 -0.15076694D-04 -0.33406632D-04  0.92143862D-04  0.16621438D-03
  0.24504381D-03 -0.11135029D-02  0.29203527D-03 -0.33895060D-03 -0.10609266D-02
 -0.14296797D-02  0.92371561D-04  0.16662512D-03  0.24564934D-03 -0.11125168D-02
  0.29578806D-03 -0.30389104D-03 -0.86758523D-03  0.15601661D-02 -0.12316698D-03
 -0.22652309D-03 -0.37076978D-03 -0.49965930D-03 -0.49426947D-03 -0.55013603D-04
 -0.18295920D-03 -0.48905828D-03  0.69852091D-06 -0.12359043D-02 -0.12689594D-02
 -0.95900801D-03 -0.37372196D-02 -0.38371739D-02 -0.28999199D-02  0.25987041D-03
  0.26682081D-03  0.20164814D-03  0.10640438D-02  0.74843474D-03  0.22421803D-02
 -0.15845694D-03 -0.29872500D-02  0.58614921D-03  0.17448066D-02 -0.11333082D-03
  0.34069975D-03 -0.57800685D-04 -0.14751197D-03  0.75951641D-05 -0.12922904D-02
  0.20976806D-02 -0.80539023D-03  0.25690400D-02 -0.15419127D-03 -0.39882435D-03
  0.99977047D-03 -0.19518662D-02  0.95209576D-03 -0.22265198D-02  0.14114422D-03
  0.39675443D-03
MO    5     MO 0.0        OCC NO =    2.0000000  ORB. ENERGY =  -10.184708
  0.78649289D-05  0.14464819D-04  0.23675810D-04  0.31906157D-04  0.31561985D-04
  0.35129390D-05  0.69756506D-04  0.18646232D-03 -0.26632374D-06 -0.44918001D-03
 -0.46119362D-03 -0.34854415D-03 -0.52353746D-04 -0.53753981D-04 -0.40624230D-04