 Entering Gaussian System, Link 0=g16
 Initial command:
 /software/gaussian//g16/l1.exe "/software/scratch/Gau-2926.inp" -scrdir="/software/scratch/"
 Entering Link 1 = /software/gaussian//g16/l1.exe PID=      2928.
  
 Copyright (c) 1988-2017, Gaussian, Inc.  All Rights Reserved.
  
 This is part of the Gaussian(R) 16 program.  It is based on
 the Gaussian(R) 09 system (copyright 2009, Gaussian, Inc.),
 the Gaussian(R) 03 system (copyright 2003, Gaussian, Inc.),
 the Gaussian(R) 98 system (copyright 1998, Gaussian, Inc.),
 the Gaussian(R) 94 system (copyright 1995, Gaussian, Inc.),
 the Gaussian 92(TM) system (copyright 1992, Gaussian, Inc.),
 the Gaussian 90(TM) system (copyright 1990, Gaussian, Inc.),
 the Gaussian 88(TM) system (copyright 1988, Gaussian, Inc.),
 the Gaussian 86(TM) system (copyright 1986, Carnegie Mellon
 University), and the Gaussian 82(TM) system (copyright 1983,
 Carnegie Mellon University). Gaussian is a federally registered
 trademark of Gaussian, Inc.
  
 This software contains proprietary and confidential information,
 including trade secrets, belonging to Gaussian, Inc.
  
 This software is provided under written license and may be
 used, copied, transmitted, or stored only in accord with that
 written license.
  
 The following legend is applicable only to US Government
 contracts under FAR:
  
                    RESTRICTED RIGHTS LEGEND
  
 Use, reproduction and disclosure by the US Government is
 subject to restrictions as set forth in subparagraphs (a)
 and (c) of the Commercial Computer Software - Restricted
 Rights clause in FAR 52.227-19.
  
 Gaussian, Inc.
 340 Quinnipiac St., Bldg. 40, Wallingford CT 06492
  
  
 ---------------------------------------------------------------
 Warning -- This program may not be used in any manner that
 competes with the business of Gaussian, Inc. or will provide
 assistance to any competitor of Gaussian, Inc.  The licensee
 of this program is prohibited from giving any competitor of
 Gaussian, Inc. access to this program.  By using this program,
 the user acknowledges that Gaussian, Inc. is engaged in the
 business of creating and licensing software in the field of
 computational chemistry and represents and warrants to the
 licensee that it is not a competitor of Gaussian, Inc. and that
 it will not use this program in any manner prohibited above.
 ---------------------------------------------------------------
  

 Cite this work as:
 Gaussian 16, Revision B.01,
 M. J. Frisch, G. W. Trucks, H. B. Schlegel, G. E. Scuseria, 
 M. A. Robb, J. R. Cheeseman, G. Scalmani, V. Barone, 
 G. A. Petersson, H. Nakatsuji, X. Li, M. Caricato, A. V. Marenich, 
 J. Bloino, B. G. Janesko, R. Gomperts, B. Mennucci, H. P. Hratchian, 
 J. V. Ortiz, A. F. Izmaylov, J. L. Sonnenberg, D. Williams-Young, 
 F. Ding, F. Lipparini, F. Egidi, J. Goings, B. Peng, A. Petrone, 
 T. Henderson, D. Ranasinghe, V. G. Zakrzewski, J. Gao, N. Rega, 
 G. Zheng, W. Liang, M. Hada, M. Ehara, K. Toyota, R. Fukuda, 
 J. Hasegawa, M. Ishida, T. Nakajima, Y. Honda, O. Kitao, H. Nakai, 
 T. Vreven, K. Throssell, J. A. Montgomery, Jr., J. E. Peralta, 
 F. Ogliaro, M. J. Bearpark, J. J. Heyd, E. N. Brothers, K. N. Kudin, 
 V. N. Staroverov, T. A. Keith, R. Kobayashi, J. Normand, 
 K. Raghavachari, A. P. Rendell, J. C. Burant, S. S. Iyengar, 
 J. Tomasi, M. Cossi, J. M. Millam, M. Klene, C. Adamo, R. Cammi, 
 J. W. Ochterski, R. L. Martin, K. Morokuma, O. Farkas, 
 J. B. Foresman, and D. J. Fox, Gaussian, Inc., Wallingford CT, 2016.
 
 ******************************************
 Gaussian 16:  EM64L-G16RevB.01 20-Dec-2017
                 1-Jul-2023 
 ******************************************
 %mem=1600mb
 %NProcShared=4
 Will use up to    4 processors via shared memory.
 %chk=formaldehyde-formaldehyde.chk
 ----------------------------------------------------------------
 # opt freq B3LYP/6-311+G(2d,p) scf=xqc out=wfn geom=connectivity
 ----------------------------------------------------------------
 1/18=20,19=15,26=3,38=1,57=2/1,3;
 2/9=110,12=2,17=6,18=5,40=1/2;
 3/5=4,6=6,7=112,11=2,25=1,30=1,71=1,74=-5/1,2,3;
 4//1;
 5/5=2,8=3,13=1,38=5/2,8;
 6/7=2,8=2,9=2,10=2,28=1/1;
 7//1,2,3,16;
 1/18=20,19=15,26=3/3(2);
 2/9=110/2;
 99/6=100/99;
 2/9=110/2;
 3/5=4,6=6,7=112,11=2,25=1,30=1,71=1,74=-5/1,2,3;
 4/5=5,16=3,69=1/1;
 5/5=2,8=3,13=1,38=5/2,8;
 7//1,2,3,16;
 1/18=20,19=15,26=3/3(-5);
 2/9=110/2;
 6/7=2,8=2,9=2,10=2,19=2,28=1/1;
 99/6=100,9=1/99;
 -------------------
 Title Card Required
 -------------------
 Symbolic Z-matrix:
 Charge =  0 Multiplicity = 1
 O                    -0.9927   -0.66735  -0.00001 
 C                    -1.49649   0.44222   0.00003 
 C                     1.24437  -0.48944   0.00005 
 H                     1.23413  -1.0661   -0.93099 
 H                     1.23372  -1.06586   0.93124 
 O                     1.30493   0.72885  -0.0001 
 H                    -0.86956   1.35102   0.00074 
 H                    -2.58344   0.5722   -0.00062 
 
 Add virtual bond connecting atoms C3         and O1         Dist= 4.24D+00.
 Add virtual bond connecting atoms O6         and H7         Dist= 4.27D+00.

 GradGradGradGradGradGradGradGradGradGradGradGradGradGradGradGradGradGrad
 Berny optimization.
 Initialization pass.
                           ----------------------------
                           !    Initial Parameters    !
                           ! (Angstroms and Degrees)  !
 --------------------------                            --------------------------
 ! Name  Definition              Value          Derivative Info.                !
 --------------------------------------------------------------------------------
 ! R1    R(1,2)                  1.2186         estimate D2E/DX2                !
 ! R2    R(1,3)                  2.2441         estimate D2E/DX2                !
 ! R3    R(2,7)                  1.1041         estimate D2E/DX2                !
 ! R4    R(2,8)                  1.0947         estimate D2E/DX2                !
 ! R5    R(3,4)                  1.0952         estimate D2E/DX2                !
 ! R6    R(3,5)                  1.0952         estimate D2E/DX2                !
 ! R7    R(3,6)                  1.2198         estimate D2E/DX2                !
 ! R8    R(6,7)                  2.2617         estimate D2E/DX2                !
 ! A1    A(2,1,3)              109.873          estimate D2E/DX2                !
 ! A2    A(1,2,7)              120.9803         estimate D2E/DX2                !
 ! A3    A(1,2,8)              121.239          estimate D2E/DX2                !
 ! A4    A(7,2,8)              117.7807         estimate D2E/DX2                !
 ! A5    A(1,3,4)               87.0716         estimate D2E/DX2                !
 ! A6    A(1,3,5)               87.0542         estimate D2E/DX2                !
 ! A7    A(1,3,6)               97.3927         estimate D2E/DX2                !
 ! A8    A(4,3,5)              116.4607         estimate D2E/DX2                !
 ! A9    A(4,3,6)              121.7515         estimate D2E/DX2                !
 ! A10   A(5,3,6)              121.7525         estimate D2E/DX2                !
 ! A11   A(3,6,7)              103.1211         estimate D2E/DX2                !
 ! A12   A(2,7,6)              108.6329         estimate D2E/DX2                !
 ! D1    D(3,1,2,7)             -0.0395         estimate D2E/DX2                !
 ! D2    D(3,1,2,8)            179.9611         estimate D2E/DX2                !
 ! D3    D(2,1,3,4)           -121.6585         estimate D2E/DX2                !
 ! D4    D(2,1,3,5)            121.637          estimate D2E/DX2                !
 ! D5    D(2,1,3,6)             -0.0102         estimate D2E/DX2                !
 ! D6    D(1,2,7,6)              0.0549         estimate D2E/DX2                !
 ! D7    D(8,2,7,6)           -179.9457         estimate D2E/DX2                !
 ! D8    D(1,3,6,7)              0.0262         estimate D2E/DX2                !
 ! D9    D(4,3,6,7)             91.1556         estimate D2E/DX2                !
 ! D10   D(5,3,6,7)            -91.0827         estimate D2E/DX2                !
 ! D11   D(3,6,7,2)             -0.0586         estimate D2E/DX2                !
 --------------------------------------------------------------------------------
 Trust Radius=3.00D-01 FncErr=1.00D-07 GrdErr=1.00D-06 EigMax=2.50D+02 EigMin=1.00D-04
 Number of steps in this run=     41 maximum allowed number of steps=    100.
 GradGradGradGradGradGradGradGradGradGradGradGradGradGradGradGradGradGrad

                          Input orientation:                          
 ---------------------------------------------------------------------
 Center     Atomic      Atomic             Coordinates (Angstroms)
 Number     Number       Type             X           Y           Z
 ---------------------------------------------------------------------
      1          8           0       -0.992700   -0.667346   -0.000009
      2          6           0       -1.496488    0.442220    0.000033
      3          6           0        1.244372   -0.489440    0.000053
      4          1           0        1.234128   -1.066099   -0.930992
      5          1           0        1.233724   -1.065859    0.931240
      6          8           0        1.304931    0.728854   -0.000101
      7          1           0       -0.869560    1.351015    0.000744
      8          1           0       -2.583443    0.572197   -0.000622
 ---------------------------------------------------------------------
                    Distance matrix (angstroms):
                    1          2          3          4          5
     1  O    0.000000
     2  C    1.218581   0.000000
     3  C    2.244135   2.894875   0.000000
     4  H    2.446323   3.255472   1.095210   0.000000
     5  H    2.446017   3.255074   1.095208   1.862232   0.000000
     6  O    2.688584   2.816045   1.219798   2.023222   2.023230
     7  H    2.022114   1.104060   2.802853   3.337076   3.336301
     8  H    2.016663   1.094699   3.972309   4.257165   4.257036
                    6          7          8
     6  O    0.000000
     7  H    2.261746   0.000000
     8  H    3.891528   1.882539   0.000000
 Stoichiometry    C2H4O2
 Framework group  C1[X(C2H4O2)]
 Deg. of freedom    18
 Full point group                 C1      NOp   1
 Largest Abelian subgroup         C1      NOp   1
 Largest concise Abelian subgroup C1      NOp   1
                         Standard orientation:                         
 ---------------------------------------------------------------------
 Center     Atomic      Atomic             Coordinates (Angstroms)
 Number     Number       Type             X           Y           Z
 ---------------------------------------------------------------------
      1          8           0       -0.992700   -0.667346   -0.000009
      2          6           0       -1.496488    0.442220    0.000033
      3          6           0        1.244372   -0.489440    0.000053
      4          1           0        1.234128   -1.066099   -0.930992
      5          1           0        1.233724   -1.065859    0.931240
      6          8           0        1.304931    0.728854   -0.000101
      7          1           0       -0.869560    1.351015    0.000744
      8          1           0       -2.583443    0.572196   -0.000622
 ---------------------------------------------------------------------
 Rotational constants (GHZ):          18.9430174           4.9981673           4.0659077
 Standard basis: 6-311+G(2d,p) (5D, 7F)
 There are   140 symmetry adapted cartesian basis functions of A   symmetry.
 There are   132 symmetry adapted basis functions of A   symmetry.
   132 basis functions,   200 primitive gaussians,   140 cartesian basis functions
    16 alpha electrons       16 beta electrons
       nuclear repulsion energy       112.5704903474 Hartrees.
 NAtoms=    8 NActive=    8 NUniq=    8 SFac= 1.00D+00 NAtFMM=   60 NAOKFM=F Big=F
 Integral buffers will be    131072 words long.
 Raffenetti 2 integral format.
 Two-electron integral symmetry is turned on.
 One-electron integrals computed using PRISM.
 NBasis=   132 RedAO= T EigKep=  1.14D-03  NBF=   132
 NBsUse=   132 1.00D-06 EigRej= -1.00D+00 NBFU=   132
 ExpMin= 4.38D-02 ExpMax= 8.59D+03 ExpMxC= 1.30D+03 IAcc=3 IRadAn=         5 AccDes= 0.00D+00
 Harris functional with IExCor=  402 and IRadAn=       5 diagonalized for initial guess.
 HarFok:  IExCor=  402 AccDes= 0.00D+00 IRadAn=         5 IDoV= 1 UseB2=F ITyADJ=14
 ICtDFT=  3500011 ScaDFX=  1.000000  1.000000  1.000000  1.000000
 FoFCou: FMM=F IPFlag=           0 FMFlag=      100000 FMFlg1=           0
         NFxFlg=           0 DoJE=T BraDBF=F KetDBF=T FulRan=T
         wScrn=  0.000000 ICntrl=       500 IOpCl=  0 I1Cent=   200000004 NGrid=           0
         NMat0=    1 NMatS0=      1 NMatT0=    0 NMatD0=    1 NMtDS0=    0 NMtDT0=    0
 Petite list used in FoFCou.
 Keep R1 ints in memory in canonical form, NReq=42403767.
 Requested convergence on RMS density matrix=1.00D-08 within  32 cycles.
 Requested convergence on MAX density matrix=1.00D-06.
 Requested convergence on             energy=1.00D-06.
 No special actions if energy rises.
 SCF Done:  E(RB3LYP) =  -229.087386069     A.U. after   11 cycles
            NFock= 11  Conv=0.83D-08     -V/T= 2.0035
 QCSCF skips out because SCF is already converged.

 **********************************************************************

            Population analysis using the SCF Density.

 **********************************************************************

 Orbital symmetries:
       Occupied  (A) (A) (A) (A) (A) (A) (A) (A) (A) (A) (A) (A)
                 (A) (A) (A) (A)
       Virtual   (A) (A) (A) (A) (A) (A) (A) (A) (A) (A) (A) (A)
                 (A) (A) (A) (A) (A) (A) (A) (A) (A) (A) (A) (A)
                 (A) (A) (A) (A) (A) (A) (A) (A) (A) (A) (A) (A)
                 (A) (A) (A) (A) (A) (A) (A) (A) (A) (A) (A) (A)
                 (A) (A) (A) (A) (A) (A) (A) (A) (A) (A) (A) (A)
                 (A) (A) (A) (A) (A) (A) (A) (A) (A) (A) (A) (A)
                 (A) (A) (A) (A) (A) (A) (A) (A) (A) (A) (A) (A)
                 (A) (A) (A) (A) (A) (A) (A) (A) (A) (A) (A) (A)
                 (A) (A) (A) (A) (A) (A) (A) (A) (A) (A) (A) (A)
                 (A) (A) (A) (A) (A) (A) (A) (A)
 The electronic state is 1-A.
 Alpha  occ. eigenvalues --  -19.16875 -19.11434 -10.28884 -10.25623  -1.08784
 Alpha  occ. eigenvalues --   -1.03768  -0.66332  -0.62440  -0.52516  -0.48617
 Alpha  occ. eigenvalues --   -0.48502  -0.43633  -0.42318  -0.37494  -0.29710
 Alpha  occ. eigenvalues --   -0.25763
 Alpha virt. eigenvalues --   -0.07934  -0.02617   0.00734   0.02128   0.04207
 Alpha virt. eigenvalues --    0.04689   0.05821   0.07733   0.08069   0.11248
 Alpha virt. eigenvalues --    0.13531   0.17524   0.18598   0.20149   0.21869
 Alpha virt. eigenvalues --    0.22998   0.23533   0.23545   0.25063   0.26809
 Alpha virt. eigenvalues --    0.28864   0.31533   0.33039   0.37801   0.45141
 Alpha virt. eigenvalues --    0.47229   0.47283   0.51761   0.52224   0.54542
 Alpha virt. eigenvalues --    0.60774   0.62724   0.62800   0.63078   0.66258
 Alpha virt. eigenvalues --    0.66315   0.76335   0.77935   0.82663   0.83611
 Alpha virt. eigenvalues --    0.87467   0.96210   0.98445   1.00589   1.02693
 Alpha virt. eigenvalues --    1.04898   1.05082   1.14906   1.18033   1.23695
 Alpha virt. eigenvalues --    1.28154   1.33210   1.43955   1.45214   1.47945
 Alpha virt. eigenvalues --    1.50424   1.54266   1.54796   1.63166   1.65564
 Alpha virt. eigenvalues --    1.72089   1.86975   1.89949   1.93574   1.98311
 Alpha virt. eigenvalues --    2.00801   2.08951   2.15850   2.17906   2.20699
 Alpha virt. eigenvalues --    2.28111   2.34109   2.34620   2.35101   2.47978
 Alpha virt. eigenvalues --    2.54850   2.70702   2.72616   2.73198   2.79439
 Alpha virt. eigenvalues --    2.85165   2.91331   3.13248   3.15653   3.16340
 Alpha virt. eigenvalues --    3.23671   3.26381   3.29321   3.30087   3.43975
 Alpha virt. eigenvalues --    3.53810   3.71997   3.88611   3.92770   4.01672
 Alpha virt. eigenvalues --    4.03900   4.97780   5.06197   5.07250   5.14687
 Alpha virt. eigenvalues --    5.89872   5.94516   6.74181   6.83368   6.84358
 Alpha virt. eigenvalues --    6.90731   6.93099   7.04173   7.13681   7.13947
 Alpha virt. eigenvalues --    7.18362   7.20968  23.98953  24.02792  49.86295
 Alpha virt. eigenvalues --   49.93466
          Condensed to atoms (all electrons):
               1          2          3          4          5          6
     1  O    8.139432   0.343581   0.010811  -0.018310  -0.018343  -0.031691
     2  C    0.343581   4.723881  -0.021138   0.000650   0.000652  -0.000443
     3  C    0.010811  -0.021138   4.680803   0.414644   0.414670   0.385218
     4  H   -0.018310   0.000650   0.414644   0.651218  -0.086846  -0.065115
     5  H   -0.018343   0.000652   0.414670  -0.086846   0.651237  -0.065125
     6  O   -0.031691  -0.000443   0.385218  -0.065115  -0.065125   8.185117
     7  H   -0.061827   0.418410  -0.006803   0.001375   0.001376   0.008549
     8  H   -0.048186   0.395432   0.003530  -0.000299  -0.000300   0.000332
               7          8
     1  O   -0.061827  -0.048186
     2  C    0.418410   0.395432
     3  C   -0.006803   0.003530
     4  H    0.001375  -0.000299
     5  H    0.001376  -0.000300
     6  O    0.008549   0.000332
     7  H    0.555703  -0.065768
     8  H   -0.065768   0.594541
 Mulliken charges:
               1
     1  O   -0.315466
     2  C    0.138977
     3  C    0.118264
     4  H    0.102683
     5  H    0.102681
     6  O   -0.416842
     7  H    0.148985
     8  H    0.120719
 Sum of Mulliken charges =   0.00000
 Mulliken charges with hydrogens summed into heavy atoms:
               1
     1  O   -0.315466
     2  C    0.408680
     3  C    0.323628
     6  O   -0.416842
 Electronic spatial extent (au):  <R**2>=            306.7412
 Charge=              0.0000 electrons
 Dipole moment (field-independent basis, Debye):
    X=             -2.0644    Y=             -0.3419    Z=              0.0005  Tot=              2.0925
 Quadrupole moment (field-independent basis, Debye-Ang):
   XX=            -21.6193   YY=            -24.9884   ZZ=            -23.5397
   XY=             -6.6658   XZ=              0.0004   YZ=              0.0004
 Traceless Quadrupole moment (field-independent basis, Debye-Ang):
   XX=              1.7632   YY=             -1.6059   ZZ=             -0.1573
   XY=             -6.6658   XZ=              0.0004   YZ=              0.0004
 Octapole moment (field-independent basis, Debye-Ang**2):
  XXX=            -10.8304  YYY=              0.4782  ZZZ=              0.0001  XYY=             -0.9243
  XXY=             -0.3534  XXZ=             -0.0012  XZZ=             -0.2635  YZZ=             -1.2381
  YYZ=              0.0008  XYZ=              0.0011
 Hexadecapole moment (field-independent basis, Debye-Ang**3):
 XXXX=           -251.3463 YYYY=            -89.0347 ZZZZ=            -29.6952 XXXY=            -10.0651
 XXXZ=              0.0050 YYYX=             -1.1974 YYYZ=              0.0010 ZZZX=             -0.0004
 ZZZY=             -0.0001 XXYY=            -63.1773 XXZZ=            -50.3396 YYZZ=            -19.8653
 XXYZ=             -0.0004 YYXZ=             -0.0012 ZZXY=             -0.5073
 N-N= 1.125704903474D+02 E-N=-7.634232795363D+02  KE= 2.282856628651D+02
 Calling FoFJK, ICntrl=      2127 FMM=F ISym2X=0 I1Cent= 0 IOpClX= 0 NMat=1 NMatS=1 NMatT=0.
 ***** Axes restored to original set *****
 -------------------------------------------------------------------
 Center     Atomic                   Forces (Hartrees/Bohr)
 Number     Number              X              Y              Z
 -------------------------------------------------------------------
      1        8          -0.025301180    0.013337777   -0.000009405
      2        6           0.013568450   -0.016990227    0.000006958
      3        6           0.000296029    0.025404560    0.000003317
      4        1           0.002337722   -0.003099619   -0.003425446
      5        1           0.002348147   -0.003097880    0.003426149
      6        8           0.009248469   -0.012491231    0.000005165
      7        1           0.001772404   -0.001948214   -0.000007368
      8        1          -0.004270042   -0.001115166    0.000000632
 -------------------------------------------------------------------
 Cartesian Forces:  Max     0.025404560 RMS     0.009699507

 GradGradGradGradGradGradGradGradGradGradGradGradGradGradGradGradGradGrad
 Berny optimization.
 FormGI is forming the generalized inverse of G from B-inverse, IUseBI=4.
 Internal  Forces:  Max     0.020886633 RMS     0.005968056
 Search for a local minimum.
 Step number   1 out of a maximum of   41
 All quantities printed in internal units (Hartrees-Bohrs-Radians)
 Mixed Optimization -- RFO/linear search
 Second derivative matrix not updated -- first step.
 ITU=  0
     Eigenvalues ---    0.01287   0.01556   0.02316   0.03800   0.07503
     Eigenvalues ---    0.08884   0.09621   0.10673   0.12168   0.16000
     Eigenvalues ---    0.19051   0.20953   0.32637   0.34217   0.34218
     Eigenvalues ---    0.34275   0.89342   0.95085
 RFO step:  Lambda=-4.57897341D-03 EMin= 1.28700726D-02
 Linear search not attempted -- first point.
 Iteration  1 RMS(Cart)=  0.04100166 RMS(Int)=  0.00046925
 Iteration  2 RMS(Cart)=  0.00038405 RMS(Int)=  0.00025011
 Iteration  3 RMS(Cart)=  0.00000007 RMS(Int)=  0.00025011
 Variable       Old X    -DE/DX   Delta X   Delta X   Delta X     New X
                                 (Linear)    (Quad)   (Total)
    R1        2.30278  -0.02089   0.00000  -0.02281  -0.02275   2.28003
    R2        4.24080   0.01334   0.00000   0.18119   0.18121   4.42201
    R3        2.08637   0.00227   0.00000   0.01079   0.01082   2.09719
    R4        2.06868   0.00411   0.00000   0.01183   0.01183   2.08051
    R5        2.06965   0.00452   0.00000   0.01304   0.01304   2.08269
    R6        2.06964   0.00452   0.00000   0.01304   0.01304   2.08268
    R7        2.30508  -0.01475   0.00000  -0.01541  -0.01547   2.28962
    R8        4.27408   0.00039   0.00000   0.08536   0.08532   4.35940
    A1        1.91765  -0.00538   0.00000  -0.04006  -0.03990   1.87775
    A2        2.11151   0.00138   0.00000   0.01000   0.01011   2.12161
    A3        2.11602  -0.00236   0.00000  -0.01515  -0.01521   2.10081
    A4        2.05566   0.00098   0.00000   0.00515   0.00510   2.06076
    A5        1.51969  -0.00016   0.00000   0.01788   0.01782   1.53751
    A6        1.51938  -0.00015   0.00000   0.01798   0.01792   1.53730
    A7        1.69982   0.00720   0.00000   0.02677   0.02662   1.72644
    A8        2.03262  -0.00079   0.00000  -0.00799  -0.00871   2.02392
    A9        2.12496   0.00026   0.00000   0.00279   0.00198   2.12695
   A10        2.12498   0.00026   0.00000   0.00279   0.00198   2.12697
   A11        1.79980  -0.00778   0.00000  -0.03377  -0.03392   1.76588
   A12        1.89600   0.00459   0.00000   0.03706   0.03710   1.93310
    D1       -0.00069   0.00000   0.00000   0.00013   0.00012  -0.00056
    D2        3.14091   0.00001   0.00000   0.00013   0.00013   3.14104
    D3       -2.12334  -0.00039   0.00000  -0.00555  -0.00563  -2.12897
    D4        2.12297   0.00038   0.00000   0.00546   0.00555   2.12851
    D5       -0.00018   0.00000   0.00000  -0.00004  -0.00004  -0.00022
    D6        0.00096   0.00000   0.00000  -0.00011  -0.00011   0.00085
    D7       -3.14064   0.00000   0.00000  -0.00011  -0.00011  -3.14076
    D8        0.00046   0.00000   0.00000  -0.00003  -0.00003   0.00043
    D9        1.59097   0.00433   0.00000   0.03818   0.03816   1.62912
   D10       -1.58969  -0.00434   0.00000  -0.03835  -0.03833  -1.62802
   D11       -0.00102   0.00000   0.00000   0.00009   0.00009  -0.00094
         Item               Value     Threshold  Converged?
 Maximum Force            0.020887     0.000450     NO 
 RMS     Force            0.005968     0.000300     NO 
 Maximum Displacement     0.145509     0.001800     NO 
 RMS     Displacement     0.040972     0.001200     NO 
 Predicted change in Energy=-2.405874D-03
 GradGradGradGradGradGradGradGradGradGradGradGradGradGradGradGradGradGrad

                          Input orientation:                          
 ---------------------------------------------------------------------
 Center     Atomic      Atomic             Coordinates (Angstroms)
 Number     Number       Type             X           Y           Z
 ---------------------------------------------------------------------
      1          8           0       -1.069700   -0.675051   -0.000072
      2          6           0       -1.527139    0.441412    0.000015
      3          6           0        1.262481   -0.483597    0.000069
      4          1           0        1.273701   -1.067946   -0.934307
      5          1           0        1.273340   -1.067719    0.934586
      6          8           0        1.351737    0.724725   -0.000069
      7          1           0       -0.872310    1.337412    0.000673
      8          1           0       -2.617145    0.596305   -0.000550
 ---------------------------------------------------------------------
                    Distance matrix (angstroms):
                    1          2          3          4          5
     1  O    0.000000
     2  C    1.206540   0.000000
     3  C    2.340026   2.938983   0.000000
     4  H    2.553172   3.315995   1.102111   0.000000
     5  H    2.552961   3.315657   1.102107   1.868893   0.000000
     6  O    2.796914   2.892783   1.211614   2.023007   2.023013
     7  H    2.022121   1.109783   2.805959   3.356382   3.355691
     8  H    2.002732   1.100957   4.027119   4.333626   4.333513
                    6          7          8
     6  O    0.000000
     7  H    2.306896   0.000000
     8  H    3.970959   1.895704   0.000000
 Stoichiometry    C2H4O2
 Framework group  C1[X(C2H4O2)]
 Deg. of freedom    18
 Full point group                 C1      NOp   1
 Largest Abelian subgroup         C1      NOp   1
 Largest concise Abelian subgroup C1      NOp   1
                         Standard orientation:                         
 ---------------------------------------------------------------------
 Center     Atomic      Atomic             Coordinates (Angstroms)
 Number     Number       Type             X           Y           Z
 ---------------------------------------------------------------------
      1          8           0       -1.068199   -0.661984   -0.000065
      2          6           0       -1.513800    0.459256    0.000022
      3          6           0        1.265877   -0.495216    0.000076
      4          1           0        1.270914   -1.079651   -0.934300
      5          1           0        1.270555   -1.079421    0.934593
      6          8           0        1.367912    0.712094   -0.000062
      7          1           0       -0.849527    1.348278    0.000680
      8          1           0       -2.602107    0.625673   -0.000543
 ---------------------------------------------------------------------
 Rotational constants (GHZ):          19.0277248           4.6868010           3.8616780
 Standard basis: 6-311+G(2d,p) (5D, 7F)
 There are   140 symmetry adapted cartesian basis functions of A   symmetry.
 There are   132 symmetry adapted basis functions of A   symmetry.
   132 basis functions,   200 primitive gaussians,   140 cartesian basis functions
    16 alpha electrons       16 beta electrons
       nuclear repulsion energy       111.3165884124 Hartrees.
 NAtoms=    8 NActive=    8 NUniq=    8 SFac= 1.00D+00 NAtFMM=   60 NAOKFM=F Big=F
 Integral buffers will be    131072 words long.
 Raffenetti 2 integral format.
 Two-electron integral symmetry is turned on.
 One-electron integrals computed using PRISM.
 NBasis=   132 RedAO= T EigKep=  1.14D-03  NBF=   132
 NBsUse=   132 1.00D-06 EigRej= -1.00D+00 NBFU=   132
 Initial guess from the checkpoint file:  "formaldehyde-formaldehyde.chk"
 B after Tr=     0.000000    0.000000    0.000000
         Rot=    0.999966   -0.000011    0.000009    0.008295 Ang=  -0.95 deg.
 ExpMin= 4.38D-02 ExpMax= 8.59D+03 ExpMxC= 1.30D+03 IAcc=3 IRadAn=         5 AccDes= 0.00D+00
 Harris functional with IExCor=  402 and IRadAn=       5 diagonalized for initial guess.
 HarFok:  IExCor=  402 AccDes= 0.00D+00 IRadAn=         5 IDoV= 1 UseB2=F ITyADJ=14
 ICtDFT=  3500011 ScaDFX=  1.000000  1.000000  1.000000  1.000000
 FoFCou: FMM=F IPFlag=           0 FMFlag=      100000 FMFlg1=           0
         NFxFlg=           0 DoJE=T BraDBF=F KetDBF=T FulRan=T
         wScrn=  0.000000 ICntrl=       500 IOpCl=  0 I1Cent=   200000004 NGrid=           0
         NMat0=    1 NMatS0=      1 NMatT0=    0 NMatD0=    1 NMtDS0=    0 NMtDT0=    0
 Petite list used in FoFCou.
 Keep R1 ints in memory in canonical form, NReq=42403767.
 Requested convergence on RMS density matrix=1.00D-08 within  32 cycles.
 Requested convergence on MAX density matrix=1.00D-06.
 Requested convergence on             energy=1.00D-06.
 No special actions if energy rises.
 SCF Done:  E(RB3LYP) =  -229.090595803     A.U. after   10 cycles
            NFock= 10  Conv=0.59D-08     -V/T= 2.0035
 QCSCF skips out because SCF is already converged.
 Calling FoFJK, ICntrl=      2127 FMM=F ISym2X=0 I1Cent= 0 IOpClX= 0 NMat=1 NMatS=1 NMatT=0.
 ***** Axes restored to original set *****
 -------------------------------------------------------------------
 Center     Atomic                   Forces (Hartrees/Bohr)
 Number     Number              X              Y              Z
 -------------------------------------------------------------------
      1        8          -0.009236464    0.000507049   -0.000005004
      2        6           0.002654256   -0.001713440    0.000004540
      3        6           0.007844102    0.009314661    0.000001878
      4        1          -0.001159530   -0.000812953   -0.000664580
      5        1          -0.001152936   -0.000812711    0.000665233
      6        8           0.002829186   -0.003912483    0.000003354
      7        1          -0.000479624   -0.003718439   -0.000007334
      8        1          -0.001298991    0.001148316    0.000001915
 -------------------------------------------------------------------
 Cartesian Forces:  Max     0.009314661 RMS     0.003470695

 GradGradGradGradGradGradGradGradGradGradGradGradGradGradGradGradGradGrad
 Berny optimization.
 Using GEDIIS/GDIIS optimizer.
 FormGI is forming the generalized inverse of G from B-inverse, IUseBI=4.
 Internal  Forces:  Max     0.007615969 RMS     0.002228672
 Search for a local minimum.
 Step number   2 out of a maximum of   41
 All quantities printed in internal units (Hartrees-Bohrs-Radians)
 Mixed Optimization -- RFO/linear search
 Update second derivatives using D2CorX and points    1    2
 DE= -3.21D-03 DEPred=-2.41D-03 R= 1.33D+00
 TightC=F SS=  1.41D+00  RLast= 2.24D-01 DXNew= 5.0454D-01 6.7328D-01
 Trust test= 1.33D+00 RLast= 2.24D-01 DXMaxT set to 5.05D-01
 ITU=  1  0
 Use linear search instead of GDIIS.
     Eigenvalues ---    0.01254   0.01505   0.02293   0.02742   0.05996
     Eigenvalues ---    0.09630   0.09857   0.10655   0.12253   0.16405
     Eigenvalues ---    0.18575   0.19514   0.32944   0.34218   0.34227
     Eigenvalues ---    0.34460   0.90069   0.95421
 RFO step:  Lambda=-1.46508116D-03 EMin= 1.25434811D-02
 Quartic linear search produced a step of  0.86273.
 Iteration  1 RMS(Cart)=  0.04270622 RMS(Int)=  0.01314732
 Iteration  2 RMS(Cart)=  0.01344654 RMS(Int)=  0.00023990
 Iteration  3 RMS(Cart)=  0.00004613 RMS(Int)=  0.00023564
 Iteration  4 RMS(Cart)=  0.00000000 RMS(Int)=  0.00023564
 Variable       Old X    -DE/DX   Delta X   Delta X   Delta X     New X
                                 (Linear)    (Quad)   (Total)
    R1        2.28003  -0.00335  -0.01963   0.00616  -0.01340   2.26663
    R2        4.42201   0.00762   0.15633   0.11994   0.27623   4.69824
    R3        2.09719  -0.00162   0.00933  -0.01154  -0.00212   2.09507
    R4        2.08051   0.00145   0.01020   0.00095   0.01115   2.09166
    R5        2.08269   0.00098   0.01125  -0.00225   0.00900   2.09169
    R6        2.08268   0.00098   0.01125  -0.00224   0.00901   2.09169
    R7        2.28962  -0.00515  -0.01334  -0.00115  -0.01459   2.27503
    R8        4.35940   0.00051   0.07361   0.05673   0.13034   4.48975
    A1        1.87775  -0.00303  -0.03442  -0.01091  -0.04519   1.83255
    A2        2.12161  -0.00050   0.00872  -0.00567   0.00323   2.12484
    A3        2.10081   0.00124  -0.01312   0.01992   0.00671   2.10753
    A4        2.06076  -0.00074   0.00440  -0.01426  -0.00995   2.05081
    A5        1.53751  -0.00189   0.01537  -0.03107  -0.01570   1.52180
    A6        1.53730  -0.00188   0.01546  -0.03103  -0.01557   1.52173
    A7        1.72644   0.00277   0.02296  -0.00526   0.01742   1.74386
    A8        2.02392  -0.00034  -0.00751   0.00210  -0.00615   2.01777
    A9        2.12695   0.00021   0.00171   0.00266   0.00370   2.13065
   A10        2.12697   0.00021   0.00171   0.00265   0.00368   2.13065
   A11        1.76588  -0.00309  -0.02927  -0.00410  -0.03360   1.73228
   A12        1.93310   0.00385   0.03201   0.02593   0.05814   1.99124
    D1       -0.00056   0.00000   0.00011   0.00015   0.00025  -0.00032
    D2        3.14104   0.00000   0.00011   0.00011   0.00021   3.14125
    D3       -2.12897  -0.00007  -0.00486   0.00268  -0.00212  -2.13109
    D4        2.12851   0.00007   0.00479  -0.00274   0.00199   2.13050
    D5       -0.00022   0.00000  -0.00004  -0.00003  -0.00007  -0.00029
    D6        0.00085   0.00000  -0.00010  -0.00016  -0.00026   0.00058
    D7       -3.14076   0.00000  -0.00010  -0.00013  -0.00023  -3.14099
    D8        0.00043   0.00000  -0.00002  -0.00004  -0.00006   0.00037
    D9        1.62912  -0.00046   0.03292  -0.03992  -0.00705   1.62207
   D10       -1.62802   0.00045  -0.03307   0.03979   0.00677  -1.62125
   D11       -0.00094   0.00000   0.00007   0.00012   0.00019  -0.00075
         Item               Value     Threshold  Converged?
 Maximum Force            0.007616     0.000450     NO 
 RMS     Force            0.002229     0.000300     NO 
 Maximum Displacement     0.175583     0.001800     NO 
 RMS     Displacement     0.054789     0.001200     NO 
 Predicted change in Energy=-1.248869D-03
 GradGradGradGradGradGradGradGradGradGradGradGradGradGradGradGradGradGrad

                          Input orientation:                          
 ---------------------------------------------------------------------
 Center     Atomic      Atomic             Coordinates (Angstroms)
 Number     Number       Type             X           Y           Z
 ---------------------------------------------------------------------
      1          8           0       -1.162614   -0.691881   -0.000180
      2          6           0       -1.572176    0.435478   -0.000010
      3          6           0        1.314247   -0.476568    0.000102
      4          1           0        1.311216   -1.066404   -0.936518
      5          1           0        1.310901   -1.066210    0.936840
      6          8           0        1.418073    0.722842   -0.000006
      7          1           0       -0.885207    1.305654    0.000519
      8          1           0       -2.659475    0.642631   -0.000400
 ---------------------------------------------------------------------
                    Distance matrix (angstroms):
                    1          2          3          4          5
     1  O    0.000000
     2  C    1.199450   0.000000
     3  C    2.486202   3.027088   0.000000
     4  H    2.671485   3.383289   1.106875   0.000000
     5  H    2.671405   3.383029   1.106873   1.873358   0.000000
     6  O    2.943024   3.004025   1.203895   2.022344   2.022343
     7  H    2.016705   1.108662   2.830885   3.365853   3.365312
     8  H    2.005371   1.106856   4.128325   4.423064   4.422944
                    6          7          8
     6  O    0.000000
     7  H    2.375872   0.000000
     8  H    4.078336   1.894103   0.000000
 Stoichiometry    C2H4O2
 Framework group  C1[X(C2H4O2)]
 Deg. of freedom    18
 Full point group                 C1      NOp   1
 Largest Abelian subgroup         C1      NOp   1
 Largest concise Abelian subgroup C1      NOp   1
                         Standard orientation:                         
 ---------------------------------------------------------------------
 Center     Atomic      Atomic             Coordinates (Angstroms)
 Number     Number       Type             X           Y           Z
 ---------------------------------------------------------------------
      1          8           0       -1.164634   -0.659772   -0.000164
      2          6           0       -1.548383    0.476633    0.000005
      3          6           0        1.316493   -0.500992    0.000117
      4          1           0        1.300013   -1.090607   -0.936502
      5          1           0        1.299703   -1.090405    0.936855
      6          8           0        1.447641    0.695738    0.000009
      7          1           0       -0.841751    1.330918    0.000534
      8          1           0       -2.630675    0.708524   -0.000385
 ---------------------------------------------------------------------
 Rotational constants (GHZ):          19.0459175           4.2829576           3.5843626
 Standard basis: 6-311+G(2d,p) (5D, 7F)
 There are   140 symmetry adapted cartesian basis functions of A   symmetry.
 There are   132 symmetry adapted basis functions of A   symmetry.
   132 basis functions,   200 primitive gaussians,   140 cartesian basis functions
    16 alpha electrons       16 beta electrons
       nuclear repulsion energy       109.4872263036 Hartrees.
 NAtoms=    8 NActive=    8 NUniq=    8 SFac= 1.00D+00 NAtFMM=   60 NAOKFM=F Big=F
 Integral buffers will be    131072 words long.
 Raffenetti 2 integral format.
 Two-electron integral symmetry is turned on.
 One-electron integrals computed using PRISM.
 NBasis=   132 RedAO= T EigKep=  1.16D-03  NBF=   132
 NBsUse=   132 1.00D-06 EigRej= -1.00D+00 NBFU=   132
 Initial guess from the checkpoint file:  "formaldehyde-formaldehyde.chk"
 B after Tr=     0.000000    0.000000    0.000000
         Rot=    0.999964   -0.000019    0.000014    0.008449 Ang=  -0.97 deg.
 ExpMin= 4.38D-02 ExpMax= 8.59D+03 ExpMxC= 1.30D+03 IAcc=3 IRadAn=         5 AccDes= 0.00D+00
 Harris functional with IExCor=  402 and IRadAn=       5 diagonalized for initial guess.
 HarFok:  IExCor=  402 AccDes= 0.00D+00 IRadAn=         5 IDoV= 1 UseB2=F ITyADJ=14
 ICtDFT=  3500011 ScaDFX=  1.000000  1.000000  1.000000  1.000000
 FoFCou: FMM=F IPFlag=           0 FMFlag=      100000 FMFlg1=           0
         NFxFlg=           0 DoJE=T BraDBF=F KetDBF=T FulRan=T
         wScrn=  0.000000 ICntrl=       500 IOpCl=  0 I1Cent=   200000004 NGrid=           0
         NMat0=    1 NMatS0=      1 NMatT0=    0 NMatD0=    1 NMtDS0=    0 NMtDT0=    0
 Petite list used in FoFCou.
 Keep R1 ints in memory in canonical form, NReq=42403767.
 Requested convergence on RMS density matrix=1.00D-08 within  32 cycles.
 Requested convergence on MAX density matrix=1.00D-06.
 Requested convergence on             energy=1.00D-06.
 No special actions if energy rises.
 SCF Done:  E(RB3LYP) =  -229.092524588     A.U. after   10 cycles
            NFock= 10  Conv=0.36D-08     -V/T= 2.0034
 QCSCF skips out because SCF is already converged.
 Calling FoFJK, ICntrl=      2127 FMM=F ISym2X=0 I1Cent= 0 IOpClX= 0 NMat=1 NMatS=1 NMatT=0.
 ***** Axes restored to original set *****
 -------------------------------------------------------------------
 Center     Atomic                   Forces (Hartrees/Bohr)
 Number     Number              X              Y              Z
 -------------------------------------------------------------------
      1        8          -0.000535430   -0.007448813   -0.000001547
      2        6          -0.003896758    0.007750302   -0.000000473
      3        6           0.006877518   -0.004200131    0.000001100
      4        1          -0.001678944    0.000794413    0.000942035
      5        1          -0.001676367    0.000793320   -0.000941843
      6        8           0.000190236    0.004028299    0.000001093
      7        1          -0.000351282   -0.002253406   -0.000002791
      8        1           0.001071027    0.000536015    0.000002426
 -------------------------------------------------------------------
 Cartesian Forces:  Max     0.007750302 RMS     0.003079014

 GradGradGradGradGradGradGradGradGradGradGradGradGradGradGradGradGradGrad
 Berny optimization.
 Using GEDIIS/GDIIS optimizer.
 FormGI is forming the generalized inverse of G from B-inverse, IUseBI=4.
 Internal  Forces:  Max     0.006966387 RMS     0.001768992
 Search for a local minimum.
 Step number   3 out of a maximum of   41
 All quantities printed in internal units (Hartrees-Bohrs-Radians)
 Mixed Optimization -- RFO/linear search
 Update second derivatives using D2CorX and points    1    2    3
 DE= -1.93D-03 DEPred=-1.25D-03 R= 1.54D+00
 TightC=F SS=  1.41D+00  RLast= 3.19D-01 DXNew= 8.4853D-01 9.5646D-01
 Trust test= 1.54D+00 RLast= 3.19D-01 DXMaxT set to 8.49D-01
 ITU=  1  1  0
 Use linear search instead of GDIIS.
     Eigenvalues ---    0.01195   0.01431   0.01484   0.02313   0.05599
     Eigenvalues ---    0.09556   0.10262   0.10700   0.12313   0.16405
     Eigenvalues ---    0.18391   0.19717   0.32939   0.34218   0.34264
     Eigenvalues ---    0.35345   0.90538   1.09464
 RFO step:  Lambda=-6.10586809D-04 EMin= 1.19491503D-02
 Quartic linear search produced a step of  0.86441.
 Iteration  1 RMS(Cart)=  0.04180821 RMS(Int)=  0.01699955
 Iteration  2 RMS(Cart)=  0.01733209 RMS(Int)=  0.00020759
 Iteration  3 RMS(Cart)=  0.00007738 RMS(Int)=  0.00019359
 Iteration  4 RMS(Cart)=  0.00000000 RMS(Int)=  0.00019359
 Variable       Old X    -DE/DX   Delta X   Delta X   Delta X     New X
                                 (Linear)    (Quad)   (Total)
    R1        2.26663   0.00697  -0.01158   0.01167   0.00010   2.26673
    R2        4.69824   0.00321   0.23878   0.05991   0.29858   4.99682
    R3        2.09507  -0.00128  -0.00183  -0.00126  -0.00299   2.09208
    R4        2.09166  -0.00095   0.00964  -0.00603   0.00361   2.09527
    R5        2.09169  -0.00122   0.00778  -0.00603   0.00175   2.09344
    R6        2.09169  -0.00122   0.00779  -0.00603   0.00176   2.09344
    R7        2.27503   0.00354  -0.01261   0.00802  -0.00464   2.27039
    R8        4.48975   0.00045   0.11267   0.03580   0.14856   4.63831
    A1        1.83255  -0.00144  -0.03907  -0.00235  -0.04150   1.79105
    A2        2.12484  -0.00081   0.00279  -0.00224   0.00066   2.12550
    A3        2.10753   0.00116   0.00580   0.00237   0.00812   2.11565
    A4        2.05081  -0.00035  -0.00860  -0.00013  -0.00878   2.04204
    A5        1.52180  -0.00154  -0.01357  -0.01407  -0.02754   1.49426
    A6        1.52173  -0.00153  -0.01346  -0.01408  -0.02743   1.49430
    A7        1.74386   0.00024   0.01506  -0.00596   0.00889   1.75275
    A8        2.01777   0.00014  -0.00531   0.00461  -0.00139   2.01638
    A9        2.13065   0.00006   0.00320  -0.00063   0.00230   2.13295
   A10        2.13065   0.00006   0.00318  -0.00063   0.00229   2.13294
   A11        1.73228  -0.00027  -0.02904   0.00199  -0.02711   1.70517
   A12        1.99124   0.00227   0.05026   0.00856   0.05907   2.05032
    D1       -0.00032   0.00000   0.00021   0.00004   0.00024  -0.00008
    D2        3.14125   0.00000   0.00018   0.00013   0.00031   3.14156
    D3       -2.13109   0.00019  -0.00183   0.00347   0.00206  -2.12903
    D4        2.13050  -0.00019   0.00172  -0.00337  -0.00206   2.12844
    D5       -0.00029   0.00000  -0.00006   0.00005  -0.00001  -0.00030
    D6        0.00058   0.00000  -0.00023  -0.00007  -0.00031   0.00027
    D7       -3.14099   0.00000  -0.00020  -0.00017  -0.00038  -3.14137
    D8        0.00037   0.00000  -0.00005  -0.00006  -0.00010   0.00027
    D9        1.62207  -0.00167  -0.00609  -0.02084  -0.02699   1.59509
   D10       -1.62125   0.00167   0.00586   0.02073   0.02665  -1.59459
   D11       -0.00075   0.00000   0.00016   0.00010   0.00026  -0.00048
         Item               Value     Threshold  Converged?
 Maximum Force            0.006966     0.000450     NO 
 RMS     Force            0.001769     0.000300     NO 
 Maximum Displacement     0.176601     0.001800     NO 
 RMS     Displacement     0.056907     0.001200     NO 
 Predicted change in Energy=-4.087262D-04
 GradGradGradGradGradGradGradGradGradGradGradGradGradGradGradGradGradGrad

                          Input orientation:                          
 ---------------------------------------------------------------------
 Center     Atomic      Atomic             Coordinates (Angstroms)
 Number     Number       Type             X           Y           Z
 ---------------------------------------------------------------------
      1          8           0       -1.256068   -0.710712   -0.000281
      2          6           0       -1.621940    0.431629   -0.000069
      3          6           0        1.377506   -0.473826    0.000144
      4          1           0        1.345693   -1.063919   -0.936875
      5          1           0        1.345418   -1.063796    0.937231
      6          8           0        1.488173    0.722504    0.000087
      7          1           0       -0.903559    1.273979    0.000302
      8          1           0       -2.700259    0.689683   -0.000192
 ---------------------------------------------------------------------
                    Distance matrix (angstroms):
                    1          2          3          4          5
     1  O    0.000000
     2  C    1.199503   0.000000
     3  C    2.644206   3.133133   0.000000
     4  H    2.787673   3.452697   1.107802   0.000000
     5  H    2.787710   3.452541   1.107803   1.874107   0.000000
     6  O    3.095959   3.123685   1.201437   2.022252   2.022248
     7  H    2.015754   1.107079   2.873687   3.376863   3.376526
     8  H    2.011665   1.108767   4.240509   4.508018   4.507877
                    6          7          8
     6  O    0.000000
     7  H    2.454487   0.000000
     8  H    4.188561   1.889321   0.000000
 Stoichiometry    C2H4O2
 Framework group  C1[X(C2H4O2)]
 Deg. of freedom    18
 Full point group                 C1      NOp   1
 Largest Abelian subgroup         C1      NOp   1
 Largest concise Abelian subgroup C1      NOp   1
                         Standard orientation:                         
 ---------------------------------------------------------------------
 Center     Atomic      Atomic             Coordinates (Angstroms)
 Number     Number       Type             X           Y           Z
 ---------------------------------------------------------------------
      1          8           0       -1.261626   -0.660398   -0.000261
      2          6           0       -1.590580    0.493116   -0.000049
      3          6           0        1.378202   -0.508311    0.000164
      4          1           0        1.327432   -1.097076   -0.936855
      5          1           0        1.327162   -1.096944    0.937252
      6          8           0        1.527277    0.683842    0.000107
      7          1           0       -0.845487    1.311933    0.000322
      8          1           0       -2.660045    0.785707   -0.000172
 ---------------------------------------------------------------------
 Rotational constants (GHZ):          18.9502702           3.9043651           3.3124745
 Standard basis: 6-311+G(2d,p) (5D, 7F)
 There are   140 symmetry adapted cartesian basis functions of A   symmetry.
 There are   132 symmetry adapted basis functions of A   symmetry.
   132 basis functions,   200 primitive gaussians,   140 cartesian basis functions
    16 alpha electrons       16 beta electrons
       nuclear repulsion energy       107.5061925614 Hartrees.
 NAtoms=    8 NActive=    8 NUniq=    8 SFac= 1.00D+00 NAtFMM=   60 NAOKFM=F Big=F
 Integral buffers will be    131072 words long.
 Raffenetti 2 integral format.
 Two-electron integral symmetry is turned on.
 One-electron integrals computed using PRISM.
 NBasis=   132 RedAO= T EigKep=  1.20D-03  NBF=   132
 NBsUse=   132 1.00D-06 EigRej= -1.00D+00 NBFU=   132
 Initial guess from the checkpoint file:  "formaldehyde-formaldehyde.chk"
 B after Tr=     0.000000    0.000000    0.000000
         Rot=    0.999977   -0.000019    0.000017    0.006837 Ang=  -0.78 deg.
 ExpMin= 4.38D-02 ExpMax= 8.59D+03 ExpMxC= 1.30D+03 IAcc=3 IRadAn=         5 AccDes= 0.00D+00
 Harris functional with IExCor=  402 and IRadAn=       5 diagonalized for initial guess.
 HarFok:  IExCor=  402 AccDes= 0.00D+00 IRadAn=         5 IDoV= 1 UseB2=F ITyADJ=14
 ICtDFT=  3500011 ScaDFX=  1.000000  1.000000  1.000000  1.000000
 FoFCou: FMM=F IPFlag=           0 FMFlag=      100000 FMFlg1=           0
         NFxFlg=           0 DoJE=T BraDBF=F KetDBF=T FulRan=T
         wScrn=  0.000000 ICntrl=       500 IOpCl=  0 I1Cent=   200000004 NGrid=           0
         NMat0=    1 NMatS0=      1 NMatT0=    0 NMatD0=    1 NMtDS0=    0 NMtDT0=    0
 Petite list used in FoFCou.
 Keep R1 ints in memory in canonical form, NReq=42403767.
 Requested convergence on RMS density matrix=1.00D-08 within  32 cycles.
 Requested convergence on MAX density matrix=1.00D-06.
 Requested convergence on             energy=1.00D-06.
 No special actions if energy rises.
 SCF Done:  E(RB3LYP) =  -229.093353372     A.U. after   10 cycles
            NFock= 10  Conv=0.30D-08     -V/T= 2.0034
 QCSCF skips out because SCF is already converged.
 Calling FoFJK, ICntrl=      2127 FMM=F ISym2X=0 I1Cent= 0 IOpClX= 0 NMat=1 NMatS=1 NMatT=0.
 ***** Axes restored to original set *****
 -------------------------------------------------------------------
 Center     Atomic                   Forces (Hartrees/Bohr)
 Number     Number              X              Y              Z
 -------------------------------------------------------------------
      1        8           0.001320627   -0.006120914   -0.000002121
      2        6          -0.003898458    0.007492429    0.000006039
      3        6           0.002083703   -0.007415871    0.000000624
      4        1          -0.000525403    0.001194872    0.001033916
      5        1          -0.000525182    0.001193743   -0.001034342
      6        8          -0.000048872    0.005266149    0.000000080
      7        1           0.000044614   -0.001185606   -0.000002758
      8        1           0.001548972   -0.000424803   -0.000001438
 -------------------------------------------------------------------
 Cartesian Forces:  Max     0.007492429 RMS     0.002937876

 GradGradGradGradGradGradGradGradGradGradGradGradGradGradGradGradGradGrad
 Berny optimization.
 Using GEDIIS/GDIIS optimizer.
 FormGI is forming the generalized inverse of G from B-inverse, IUseBI=4.
 Internal  Forces:  Max     0.006342608 RMS     0.001587300
 Search for a local minimum.
 Step number   4 out of a maximum of   41
 All quantities printed in internal units (Hartrees-Bohrs-Radians)
 Mixed Optimization -- RFO/linear search
 Update second derivatives using D2CorX and points    3    4
 DE= -8.29D-04 DEPred=-4.09D-04 R= 2.03D+00
 TightC=F SS=  1.41D+00  RLast= 3.47D-01 DXNew= 1.4270D+00 1.0410D+00
 Trust test= 2.03D+00 RLast= 3.47D-01 DXMaxT set to 1.04D+00
 ITU=  1  1  1  0
 Use linear search instead of GDIIS.
     Eigenvalues ---    0.00808   0.01129   0.01359   0.02336   0.05576
     Eigenvalues ---    0.09514   0.10152   0.10711   0.12407   0.16538
     Eigenvalues ---    0.18395   0.19679   0.32970   0.34218   0.34278
     Eigenvalues ---    0.35166   0.91203   1.06160
 RFO step:  Lambda=-1.05688769D-04 EMin= 8.08447670D-03
 Quartic linear search produced a step of  0.50163.
 Iteration  1 RMS(Cart)=  0.03006551 RMS(Int)=  0.00020132
 Iteration  2 RMS(Cart)=  0.00019085 RMS(Int)=  0.00011601
 Iteration  3 RMS(Cart)=  0.00000001 RMS(Int)=  0.00011601
 Variable       Old X    -DE/DX   Delta X   Delta X   Delta X     New X
                                 (Linear)    (Quad)   (Total)
    R1        2.26673   0.00634   0.00005   0.00543   0.00547   2.27220
    R2        4.99682   0.00077   0.14978   0.00807   0.15781   5.15464
    R3        2.09208  -0.00065  -0.00150  -0.00070  -0.00217   2.08991
    R4        2.09527  -0.00161   0.00181  -0.00519  -0.00338   2.09189
    R5        2.09344  -0.00150   0.00088  -0.00425  -0.00337   2.09007
    R6        2.09344  -0.00150   0.00088  -0.00425  -0.00337   2.09008
    R7        2.27039   0.00511  -0.00233   0.00559   0.00326   2.27365
    R8        4.63831   0.00019   0.07452   0.00651   0.08107   4.71938
    A1        1.79105  -0.00037  -0.02082   0.00117  -0.01973   1.77132
    A2        2.12550  -0.00052   0.00033  -0.00159  -0.00125   2.12425
    A3        2.11565   0.00020   0.00407  -0.00264   0.00143   2.11708
    A4        2.04204   0.00032  -0.00440   0.00422  -0.00018   2.04186
    A5        1.49426  -0.00034  -0.01381   0.00103  -0.01274   1.48152
    A6        1.49430  -0.00034  -0.01376   0.00101  -0.01270   1.48160
    A7        1.75275  -0.00046   0.00446  -0.00223   0.00219   1.75494
    A8        2.01638   0.00045  -0.00070   0.00493   0.00378   2.02016
    A9        2.13295  -0.00020   0.00116  -0.00245  -0.00151   2.13144
   A10        2.13294  -0.00020   0.00115  -0.00244  -0.00151   2.13143
   A11        1.70517   0.00031  -0.01360   0.00113  -0.01243   1.69274
   A12        2.05032   0.00104   0.02963   0.00151   0.03122   2.08154
    D1       -0.00008   0.00000   0.00012   0.00012   0.00023   0.00015
    D2        3.14156   0.00000   0.00015  -0.00011   0.00004  -3.14159
    D3       -2.12903   0.00027   0.00103   0.00236   0.00361  -2.12542
    D4        2.12844  -0.00027  -0.00104  -0.00237  -0.00362   2.12482
    D5       -0.00030   0.00000   0.00000  -0.00001  -0.00001  -0.00031
    D6        0.00027   0.00000  -0.00016  -0.00016  -0.00033  -0.00005
    D7       -3.14137   0.00000  -0.00019   0.00006  -0.00014  -3.14150
    D8        0.00027   0.00000  -0.00005  -0.00004  -0.00009   0.00018
    D9        1.59509  -0.00074  -0.01354  -0.00070  -0.01425   1.58083
   D10       -1.59459   0.00074   0.01337   0.00065   0.01403  -1.58056
   D11       -0.00048   0.00000   0.00013   0.00013   0.00027  -0.00021
         Item               Value     Threshold  Converged?
 Maximum Force            0.006343     0.000450     NO 
 RMS     Force            0.001587     0.000300     NO 
 Maximum Displacement     0.093709     0.001800     NO 
 RMS     Displacement     0.030028     0.001200     NO 
 Predicted change in Energy=-9.060241D-05
 GradGradGradGradGradGradGradGradGradGradGradGradGradGradGradGradGradGrad

                          Input orientation:                          
 ---------------------------------------------------------------------
 Center     Atomic      Atomic             Coordinates (Angstroms)
 Number     Number       Type             X           Y           Z
 ---------------------------------------------------------------------
      1          8           0       -1.305656   -0.719942   -0.000308
      2          6           0       -1.649696    0.432185   -0.000042
      3          6           0        1.411103   -0.475693    0.000165
      4          1           0        1.364980   -1.062071   -0.936485
      5          1           0        1.364731   -1.062021    0.936837
      6          8           0        1.524603    0.722103    0.000149
      7          1           0       -0.914527    1.258386    0.000151
      8          1           0       -2.720572    0.712595   -0.000123
 ---------------------------------------------------------------------
                    Distance matrix (angstroms):
                    1          2          3          4          5
     1  O    0.000000
     2  C    1.202398   0.000000
     3  C    2.727717   3.192606   0.000000
     4  H    2.850575   3.492563   1.106020   0.000000
     5  H    2.850653   3.492443   1.106022   1.873321   0.000000
     6  O    3.176455   3.187511   1.203161   2.021395   2.021396
     7  H    2.016622   1.105930   2.900962   3.384960   3.384772
     8  H    2.013492   1.106980   4.299159   4.551698   4.551577
                    6          7          8
     6  O    0.000000
     7  H    2.497390   0.000000
     8  H    4.245186   1.886713   0.000000
 Stoichiometry    C2H4O2
 Framework group  C1[X(C2H4O2)]
 Deg. of freedom    18
 Full point group                 C1      NOp   1
 Largest Abelian subgroup         C1      NOp   1
 Largest concise Abelian subgroup C1      NOp   1
                         Standard orientation:                         
 ---------------------------------------------------------------------
 Center     Atomic      Atomic             Coordinates (Angstroms)
 Number     Number       Type             X           Y           Z
 ---------------------------------------------------------------------
      1          8           0       -1.311524   -0.661681   -0.000303
      2          6           0       -1.614703    0.501866   -0.000038
      3          6           0        1.412161   -0.513431    0.000170
      4          1           0        1.345380   -1.097817   -0.936480
      5          1           0        1.345132   -1.097758    0.936841
      6          8           0        1.567849    0.679615    0.000154
      7          1           0       -0.850843    1.301616    0.000156
      8          1           0       -2.675019    0.819882   -0.000118
 ---------------------------------------------------------------------
 Rotational constants (GHZ):          18.8536436           3.7229299           3.1781597
 Standard basis: 6-311+G(2d,p) (5D, 7F)
 There are   140 symmetry adapted cartesian basis functions of A   symmetry.
 There are   132 symmetry adapted basis functions of A   symmetry.
   132 basis functions,   200 primitive gaussians,   140 cartesian basis functions
    16 alpha electrons       16 beta electrons
       nuclear repulsion energy       106.4390450600 Hartrees.
 NAtoms=    8 NActive=    8 NUniq=    8 SFac= 1.00D+00 NAtFMM=   60 NAOKFM=F Big=F
 Integral buffers will be    131072 words long.
 Raffenetti 2 integral format.
 Two-electron integral symmetry is turned on.
 One-electron integrals computed using PRISM.
 NBasis=   132 RedAO= T EigKep=  1.23D-03  NBF=   132
 NBsUse=   132 1.00D-06 EigRej= -1.00D+00 NBFU=   132
 Initial guess from the checkpoint file:  "formaldehyde-formaldehyde.chk"
 B after Tr=     0.000000    0.000000    0.000000
         Rot=    0.999996   -0.000012    0.000005    0.002917 Ang=  -0.33 deg.
 ExpMin= 4.38D-02 ExpMax= 8.59D+03 ExpMxC= 1.30D+03 IAcc=3 IRadAn=         5 AccDes= 0.00D+00
 Harris functional with IExCor=  402 and IRadAn=       5 diagonalized for initial guess.
 HarFok:  IExCor=  402 AccDes= 0.00D+00 IRadAn=         5 IDoV= 1 UseB2=F ITyADJ=14
 ICtDFT=  3500011 ScaDFX=  1.000000  1.000000  1.000000  1.000000
 FoFCou: FMM=F IPFlag=           0 FMFlag=      100000 FMFlg1=           0
         NFxFlg=           0 DoJE=T BraDBF=F KetDBF=T FulRan=T
         wScrn=  0.000000 ICntrl=       500 IOpCl=  0 I1Cent=   200000004 NGrid=           0
         NMat0=    1 NMatS0=      1 NMatT0=    0 NMatD0=    1 NMtDS0=    0 NMtDT0=    0
 Petite list used in FoFCou.
 Keep R1 ints in memory in canonical form, NReq=42403767.
 Requested convergence on RMS density matrix=1.00D-08 within  32 cycles.
 Requested convergence on MAX density matrix=1.00D-06.
 Requested convergence on             energy=1.00D-06.
 No special actions if energy rises.
 SCF Done:  E(RB3LYP) =  -229.093504951     A.U. after    9 cycles
            NFock=  9  Conv=0.47D-08     -V/T= 2.0035
 QCSCF skips out because SCF is already converged.
 Calling FoFJK, ICntrl=      2127 FMM=F ISym2X=0 I1Cent= 0 IOpClX= 0 NMat=1 NMatS=1 NMatT=0.
 ***** Axes restored to original set *****
 -------------------------------------------------------------------
 Center     Atomic                   Forces (Hartrees/Bohr)
 Number     Number              X              Y              Z
 -------------------------------------------------------------------
      1        8           0.000578741   -0.001556809    0.000005835
      2        6          -0.001446916    0.002626372   -0.000015679
      3        6          -0.000124299   -0.003163592   -0.000000615
      4        1           0.000133139    0.000561771    0.000305302
      5        1           0.000132813    0.000561808   -0.000305717
      6        8          -0.000087257    0.001981482    0.000000668
      7        1           0.000238243   -0.000638200    0.000005210
      8        1           0.000575536   -0.000372833    0.000004996
 -------------------------------------------------------------------
 Cartesian Forces:  Max     0.003163592 RMS     0.001070349

 GradGradGradGradGradGradGradGradGradGradGradGradGradGradGradGradGradGrad
 Berny optimization.
 Using GEDIIS/GDIIS optimizer.
 FormGI is forming the generalized inverse of G from B-inverse, IUseBI=4.
 Internal  Forces:  Max     0.001909046 RMS     0.000536046
 Search for a local minimum.
 Step number   5 out of a maximum of   41
 All quantities printed in internal units (Hartrees-Bohrs-Radians)
 Mixed Optimization -- En-DIIS/RFO-DIIS
 Update second derivatives using D2CorX and points    3    4    5
 DE= -1.52D-04 DEPred=-9.06D-05 R= 1.67D+00
 TightC=F SS=  1.41D+00  RLast= 1.84D-01 DXNew= 1.7508D+00 5.5198D-01
 Trust test= 1.67D+00 RLast= 1.84D-01 DXMaxT set to 1.04D+00
 ITU=  1  1  1  1  0
 Use linear search instead of GDIIS.
     Eigenvalues ---    0.00559   0.01093   0.01323   0.02341   0.05564
     Eigenvalues ---    0.09505   0.10241   0.10712   0.12459   0.16614
     Eigenvalues ---    0.18398   0.19640   0.32971   0.34218   0.34239
     Eigenvalues ---    0.34606   0.91227   1.01817
 RFO step:  Lambda=-1.12469703D-05 EMin= 5.59252161D-03
 Quartic linear search produced a step of  0.17794.
 Iteration  1 RMS(Cart)=  0.00427937 RMS(Int)=  0.00000824
 Iteration  2 RMS(Cart)=  0.00000372 RMS(Int)=  0.00000721
 Iteration  3 RMS(Cart)=  0.00000000 RMS(Int)=  0.00000721
 Variable       Old X    -DE/DX   Delta X   Delta X   Delta X     New X
                                 (Linear)    (Quad)   (Total)
    R1        2.27220   0.00180   0.00097   0.00101   0.00198   2.27418
    R2        5.15464   0.00009   0.02808  -0.00754   0.02053   5.17517
    R3        2.08991  -0.00030  -0.00039  -0.00057  -0.00096   2.08895
    R4        2.09189  -0.00065  -0.00060  -0.00142  -0.00202   2.08987
    R5        2.09007  -0.00056  -0.00060  -0.00114  -0.00174   2.08833
    R6        2.09008  -0.00056  -0.00060  -0.00115  -0.00174   2.08833
    R7        2.27365   0.00191   0.00058   0.00143   0.00201   2.27566
    R8        4.71938  -0.00006   0.01443  -0.00602   0.00841   4.72779
    A1        1.77132   0.00012  -0.00351   0.00176  -0.00176   1.76956
    A2        2.12425  -0.00033  -0.00022  -0.00161  -0.00184   2.12241
    A3        2.11708  -0.00006   0.00025  -0.00087  -0.00062   2.11646
    A4        2.04186   0.00039  -0.00003   0.00249   0.00246   2.04431
    A5        1.48152   0.00021  -0.00227   0.00270   0.00043   1.48196
    A6        1.48160   0.00021  -0.00226   0.00269   0.00043   1.48202
    A7        1.75494  -0.00035   0.00039  -0.00142  -0.00103   1.75391
    A8        2.02016   0.00033   0.00067   0.00235   0.00299   2.02315
    A9        2.13144  -0.00017  -0.00027  -0.00120  -0.00149   2.12995
   A10        2.13143  -0.00017  -0.00027  -0.00121  -0.00149   2.12994
   A11        1.69274   0.00016  -0.00221   0.00138  -0.00082   1.69192
   A12        2.08154   0.00039   0.00556  -0.00012   0.00544   2.08698
    D1        0.00015   0.00000   0.00004  -0.00027  -0.00023  -0.00008
    D2       -3.14159   0.00000   0.00001   0.00025   0.00026  -3.14134
    D3       -2.12542   0.00014   0.00064   0.00095   0.00161  -2.12381
    D4        2.12482  -0.00014  -0.00064  -0.00065  -0.00131   2.12351
    D5       -0.00031   0.00000   0.00000   0.00016   0.00015  -0.00015
    D6       -0.00005   0.00000  -0.00006   0.00031   0.00025   0.00020
    D7       -3.14150   0.00000  -0.00002  -0.00019  -0.00022   3.14147
    D8        0.00018   0.00000  -0.00002  -0.00002  -0.00003   0.00015
    D9        1.58083   0.00000  -0.00254   0.00209  -0.00045   1.58039
   D10       -1.58056   0.00000   0.00250  -0.00210   0.00039  -1.58016
   D11       -0.00021   0.00000   0.00005  -0.00013  -0.00009  -0.00030
         Item               Value     Threshold  Converged?
 Maximum Force            0.001909     0.000450     NO 
 RMS     Force            0.000536     0.000300     NO 
 Maximum Displacement     0.013187     0.001800     NO 
 RMS     Displacement     0.004279     0.001200     NO 
 Predicted change in Energy=-8.718180D-06
 GradGradGradGradGradGradGradGradGradGradGradGradGradGradGradGradGradGrad

                          Input orientation:                          
 ---------------------------------------------------------------------
 Center     Atomic      Atomic             Coordinates (Angstroms)
 Number     Number       Type             X           Y           Z
 ---------------------------------------------------------------------
      1          8           0       -1.312635   -0.720583   -0.000275
      2          6           0       -1.654175    0.433380   -0.000166
      3          6           0        1.415110   -0.477189    0.000173
      4          1           0        1.368980   -1.061655   -0.936583
      5          1           0        1.368742   -1.061631    0.936933
      6          8           0        1.528279    0.721707    0.000175
      7          1           0       -0.915828    1.256061    0.000136
      8          1           0       -2.723511    0.715453   -0.000046
 ---------------------------------------------------------------------
                    Distance matrix (angstroms):
                    1          2          3          4          5
     1  O    0.000000
     2  C    1.203445   0.000000
     3  C    2.738582   3.201507   0.000000
     4  H    2.860780   3.500210   1.105097   0.000000
     5  H    2.860849   3.500177   1.105098   1.873515   0.000000
     6  O    3.186063   3.195489   1.204226   2.020711   2.020709
     7  H    2.016080   1.105423   2.904726   3.386680   3.386525
     8  H    2.013150   1.105914   4.307038   4.558914   4.558782
                    6          7          8
     6  O    0.000000
     7  H    2.501839   0.000000
     8  H    4.251795   1.886789   0.000000
 Stoichiometry    C2H4O2
 Framework group  C1[X(C2H4O2)]
 Deg. of freedom    18
 Full point group                 C1      NOp   1
 Largest Abelian subgroup         C1      NOp   1
 Largest concise Abelian subgroup C1      NOp   1
                         Standard orientation:                         
 ---------------------------------------------------------------------
 Center     Atomic      Atomic             Coordinates (Angstroms)
 Number     Number       Type             X           Y           Z
 ---------------------------------------------------------------------
      1          8           0       -1.317529   -0.662201   -0.000265
      2          6           0       -1.618473    0.503008   -0.000156
      3          6           0        1.417063   -0.514423    0.000183
      4          1           0        1.350506   -1.096917   -0.936572
      5          1           0        1.350269   -1.096884    0.936943
      6          8           0        1.572123    0.679778    0.000185
      7          1           0       -0.851786    1.299344    0.000146
      8          1           0       -2.677282    0.822334   -0.000036
 ---------------------------------------------------------------------
 Rotational constants (GHZ):          18.8285043           3.7005362           3.1611325
 Standard basis: 6-311+G(2d,p) (5D, 7F)
 There are   140 symmetry adapted cartesian basis functions of A   symmetry.
 There are   132 symmetry adapted basis functions of A   symmetry.
   132 basis functions,   200 primitive gaussians,   140 cartesian basis functions
    16 alpha electrons       16 beta electrons
       nuclear repulsion energy       106.2851531808 Hartrees.
 NAtoms=    8 NActive=    8 NUniq=    8 SFac= 1.00D+00 NAtFMM=   60 NAOKFM=F Big=F
 Integral buffers will be    131072 words long.
 Raffenetti 2 integral format.
 Two-electron integral symmetry is turned on.
 One-electron integrals computed using PRISM.
 NBasis=   132 RedAO= T EigKep=  1.24D-03  NBF=   132
 NBsUse=   132 1.00D-06 EigRej= -1.00D+00 NBFU=   132
 Initial guess from the checkpoint file:  "formaldehyde-formaldehyde.chk"
 B after Tr=     0.000000    0.000000    0.000000
         Rot=    1.000000    0.000011    0.000007    0.000162 Ang=   0.02 deg.
 Keep R1 ints in memory in canonical form, NReq=42403767.
 Requested convergence on RMS density matrix=1.00D-08 within  32 cycles.
 Requested convergence on MAX density matrix=1.00D-06.
 Requested convergence on             energy=1.00D-06.
 No special actions if energy rises.
 SCF Done:  E(RB3LYP) =  -229.093516363     A.U. after    8 cycles
            NFock=  8  Conv=0.28D-08     -V/T= 2.0035
 QCSCF skips out because SCF is already converged.
 Calling FoFJK, ICntrl=      2127 FMM=F ISym2X=0 I1Cent= 0 IOpClX= 0 NMat=1 NMatS=1 NMatT=0.
 ***** Axes restored to original set *****
 -------------------------------------------------------------------
 Center     Atomic                   Forces (Hartrees/Bohr)
 Number     Number              X              Y              Z
 -------------------------------------------------------------------
      1        8           0.000157464   -0.000170674   -0.000010602
      2        6          -0.000404992    0.000687270    0.000035052
      3        6          -0.000004154   -0.000885378   -0.000000029
      4        1           0.000096363    0.000171884    0.000030892
      5        1           0.000095846    0.000171514   -0.000031297
      6        8          -0.000259336    0.000474379    0.000000151
      7        1           0.000221404   -0.000318234   -0.000012087
      8        1           0.000097406   -0.000130761   -0.000012082
 -------------------------------------------------------------------
 Cartesian Forces:  Max     0.000885378 RMS     0.000290428

 GradGradGradGradGradGradGradGradGradGradGradGradGradGradGradGradGradGrad
 Berny optimization.
 Using GEDIIS/GDIIS optimizer.
 FormGI is forming the generalized inverse of G from B-inverse, IUseBI=4.
 Internal  Forces:  Max     0.000431682 RMS     0.000146482
 Search for a local minimum.
 Step number   6 out of a maximum of   41
 All quantities printed in internal units (Hartrees-Bohrs-Radians)
 Mixed Optimization -- En-DIIS/RFO-DIIS
 Swapping is turned off.
 Update second derivatives using D2CorX and points    3    4    5    6
 DE= -1.14D-05 DEPred=-8.72D-06 R= 1.31D+00
 TightC=F SS=  1.41D+00  RLast= 2.40D-02 DXNew= 1.7508D+00 7.1892D-02
 Trust test= 1.31D+00 RLast= 2.40D-02 DXMaxT set to 1.04D+00
 ITU=  1  1  1  1  1  0
     Eigenvalues ---    0.00602   0.01088   0.01318   0.02341   0.05205
     Eigenvalues ---    0.09509   0.10177   0.10713   0.11097   0.15320
     Eigenvalues ---    0.18405   0.18771   0.32601   0.34218   0.34251
     Eigenvalues ---    0.34324   0.89733   1.00491
 En-DIIS/RFO-DIIS/Sim-DIIS IScMMF=       -3 using points:     6    5
 RFO step:  Lambda=-4.12481138D-06.
 DidBck=F Rises=F RFO-DIIS coefs:    0.99877    0.00123
 Iteration  1 RMS(Cart)=  0.00103298 RMS(Int)=  0.00000107
 Iteration  2 RMS(Cart)=  0.00000094 RMS(Int)=  0.00000045
 Variable       Old X    -DE/DX   Delta X   Delta X   Delta X     New X
                                 (Linear)    (Quad)   (Total)
    R1        2.27418   0.00032   0.00000   0.00065   0.00065   2.27483
    R2        5.17517   0.00006  -0.00003   0.00023   0.00020   5.17538
    R3        2.08895  -0.00016   0.00000  -0.00053  -0.00053   2.08842
    R4        2.08987  -0.00013   0.00000  -0.00074  -0.00074   2.08913
    R5        2.08833  -0.00012   0.00000  -0.00067  -0.00067   2.08766
    R6        2.08833  -0.00012   0.00000  -0.00067  -0.00067   2.08767
    R7        2.27566   0.00043   0.00000   0.00084   0.00084   2.27649
    R8        4.72779  -0.00014  -0.00001  -0.00441  -0.00442   4.72337
    A1        1.76956   0.00014   0.00000   0.00049   0.00049   1.77005
    A2        2.12241  -0.00019   0.00000  -0.00150  -0.00150   2.12091
    A3        2.11646  -0.00001   0.00000  -0.00037  -0.00037   2.11610
    A4        2.04431   0.00020   0.00000   0.00187   0.00187   2.04618
    A5        1.48196   0.00016   0.00000   0.00158   0.00158   1.48354
    A6        1.48202   0.00016   0.00000   0.00156   0.00156   1.48358
    A7        1.75391  -0.00024   0.00000  -0.00188  -0.00188   1.75203
    A8        2.02315   0.00014   0.00000   0.00174   0.00174   2.02489
    A9        2.12995  -0.00007   0.00000  -0.00089  -0.00088   2.12906
   A10        2.12994  -0.00007   0.00000  -0.00087  -0.00087   2.12907
   A11        1.69192   0.00015   0.00000   0.00148   0.00149   1.69341
   A12        2.08698   0.00015  -0.00001   0.00141   0.00140   2.08838
    D1       -0.00008   0.00001   0.00000   0.00056   0.00056   0.00048
    D2       -3.14134  -0.00001   0.00000  -0.00063  -0.00063   3.14122
    D3       -2.12381   0.00005   0.00000   0.00043   0.00043  -2.12339
    D4        2.12351  -0.00005   0.00000  -0.00088  -0.00088   2.12263
    D5       -0.00015   0.00000   0.00000  -0.00023  -0.00023  -0.00039
    D6        0.00020  -0.00001   0.00000  -0.00068  -0.00068  -0.00048
    D7        3.14147   0.00001   0.00000   0.00047   0.00047  -3.14125
    D8        0.00015   0.00000   0.00000  -0.00003  -0.00003   0.00012
    D9        1.58039   0.00002   0.00000   0.00051   0.00051   1.58090
   D10       -1.58016  -0.00002   0.00000  -0.00055  -0.00055  -1.58072
   D11       -0.00030   0.00000   0.00000   0.00038   0.00039   0.00008
         Item               Value     Threshold  Converged?
 Maximum Force            0.000432     0.000450     YES
 RMS     Force            0.000146     0.000300     YES
 Maximum Displacement     0.003400     0.001800     NO 
 RMS     Displacement     0.001033     0.001200     YES
 Predicted change in Energy=-2.062573D-06
 GradGradGradGradGradGradGradGradGradGradGradGradGradGradGradGradGradGrad

                          Input orientation:                          
 ---------------------------------------------------------------------
 Center     Atomic      Atomic             Coordinates (Angstroms)
 Number     Number       Type             X           Y           Z
 ---------------------------------------------------------------------
      1          8           0       -1.313008   -0.720140   -0.000266
      2          6           0       -1.654674    0.434144    0.000132
      3          6           0        1.414958   -0.478015    0.000160
      4          1           0        1.370246   -1.061573   -0.936814
      5          1           0        1.370004   -1.061580    0.937119
      6          8           0        1.526480    0.721481    0.000174
      7          1           0       -0.915301    1.255526    0.000086
      8          1           0       -2.723741    0.715700   -0.000244
 ---------------------------------------------------------------------
                    Distance matrix (angstroms):
                    1          2          3          4          5
     1  O    0.000000
     2  C    1.203788   0.000000
     3  C    2.738691   3.202292   0.000000
     4  H    2.862438   3.502168   1.104744   0.000000
     5  H    2.862486   3.501972   1.104745   1.873933   0.000000
     6  O    3.184489   3.194105   1.204669   2.020306   2.020311
     7  H    2.015298   1.105144   2.904354   3.386806   3.386683
     8  H    2.012909   1.105521   4.307411   4.560328   4.560276
                    6          7          8
     6  O    0.000000
     7  H    2.499500   0.000000
     8  H    4.250225   1.887291   0.000000
 Stoichiometry    C2H4O2
 Framework group  C1[X(C2H4O2)]
 Deg. of freedom    18
 Full point group                 C1      NOp   1
 Largest Abelian subgroup         C1      NOp   1
 Largest concise Abelian subgroup C1      NOp   1
                         Standard orientation:                         
 ---------------------------------------------------------------------
 Center     Atomic      Atomic             Coordinates (Angstroms)
 Number     Number       Type             X           Y           Z
 ---------------------------------------------------------------------
      1          8           0       -1.316938   -0.662547   -0.000302
      2          6           0       -1.618654    0.502818    0.000096
      3          6           0        1.417748   -0.514501    0.000123
      4          1           0        1.352968   -1.096173   -0.936850
      5          1           0        1.352726   -1.096171    0.937083
      6          8           0        1.570508    0.680443    0.000137
      7          1           0       -0.851435    1.298253    0.000050
      8          1           0       -2.677391    0.821020   -0.000281
 ---------------------------------------------------------------------
 Rotational constants (GHZ):          18.8194515           3.7021983           3.1621210
 Standard basis: 6-311+G(2d,p) (5D, 7F)
 There are   140 symmetry adapted cartesian basis functions of A   symmetry.
 There are   132 symmetry adapted basis functions of A   symmetry.
   132 basis functions,   200 primitive gaussians,   140 cartesian basis functions
    16 alpha electrons       16 beta electrons
       nuclear repulsion energy       106.2828433281 Hartrees.
 NAtoms=    8 NActive=    8 NUniq=    8 SFac= 1.00D+00 NAtFMM=   60 NAOKFM=F Big=F
 Integral buffers will be    131072 words long.
 Raffenetti 2 integral format.
 Two-electron integral symmetry is turned on.
 One-electron integrals computed using PRISM.
 NBasis=   132 RedAO= T EigKep=  1.24D-03  NBF=   132
 NBsUse=   132 1.00D-06 EigRej= -1.00D+00 NBFU=   132
 Initial guess from the checkpoint file:  "formaldehyde-formaldehyde.chk"
 B after Tr=     0.000000    0.000000    0.000000
         Rot=    1.000000   -0.000022   -0.000017   -0.000223 Ang=  -0.03 deg.
 Keep R1 ints in memory in canonical form, NReq=42403767.
 Requested convergence on RMS density matrix=1.00D-08 within  32 cycles.
 Requested convergence on MAX density matrix=1.00D-06.
 Requested convergence on             energy=1.00D-06.
 No special actions if energy rises.
 SCF Done:  E(RB3LYP) =  -229.093519210     A.U. after    8 cycles
            NFock=  8  Conv=0.19D-08     -V/T= 2.0035
 QCSCF skips out because SCF is already converged.
 Calling FoFJK, ICntrl=      2127 FMM=F ISym2X=0 I1Cent= 0 IOpClX= 0 NMat=1 NMatS=1 NMatT=0.
 ***** Axes restored to original set *****
 -------------------------------------------------------------------
 Center     Atomic                   Forces (Hartrees/Bohr)
 Number     Number              X              Y              Z
 -------------------------------------------------------------------
      1        8          -0.000054880    0.000180714    0.000029872
      2        6           0.000016505   -0.000039242   -0.000089422
      3        6           0.000157689    0.000062661   -0.000001739
      4        1           0.000041156   -0.000015061   -0.000035168
      5        1           0.000041143   -0.000014396    0.000035284
      6        8          -0.000323731   -0.000081197    0.000001228
      7        1           0.000172544   -0.000093547    0.000030390
      8        1          -0.000050425    0.000000068    0.000029555
[...]
 This molecule is an asymmetric top.
 Rotational symmetry number  1.
 Rotational temperatures (Kelvin)      0.89830     0.17934     0.15283
 Rotational constants (GHZ):          18.71760     3.73689     3.18449
 Zero-point vibrational energy     145453.5 (Joules/Mol)
                                   34.76421 (Kcal/Mol)
 Warning -- explicit consideration of   6 degrees of freedom as
           vibrations may cause significant error
 Vibrational temperatures:    136.97   143.85   198.89   280.74   288.98
          (Kelvin)            376.07  1703.05  1736.84  1813.79  1827.15
                             2191.64  2200.30  2572.74  2590.57  4179.81
                             4184.51  4273.91  4288.27
 
 Zero-point correction=                           0.055400 (Hartree/Particle)
 Thermal correction to Energy=                    0.062046
 Thermal correction to Enthalpy=                  0.062990
 Thermal correction to Gibbs Free Energy=         0.025481
 Sum of electronic and zero-point Energies=           -229.038132
 Sum of electronic and thermal Energies=              -229.031487
 Sum of electronic and thermal Enthalpies=            -229.030542
 Sum of electronic and thermal Free Energies=         -229.068051
 
                     E (Thermal)             CV                S
                      KCal/Mol        Cal/Mol-Kelvin    Cal/Mol-Kelvin
 Total                   38.934             18.145             78.943
 Electronic               0.000              0.000              0.000
 Translational            0.889              2.981             38.196
 Rotational               0.889              2.981             24.782
 Vibrational             37.157             12.183             15.965
 Vibration     1          0.603              1.953              3.550
 Vibration     2          0.604              1.949              3.455
 Vibration     3          0.614              1.915              2.828
 Vibration     4          0.636              1.847              2.179
 Vibration     5          0.638              1.839              2.125
 Vibration     6          0.669              1.743              1.653
                       Q            Log10(Q)             Ln(Q)
 Total Bot       0.190321D-11        -11.720512        -26.987477
 Total V=0       0.577875D+14         13.761834         31.687793
 Vib (Bot)       0.179065D-23        -23.746990        -54.679466
 Vib (Bot)    1  0.215778D+01          0.334008          0.769082
 Vib (Bot)    2  0.205267D+01          0.312319          0.719140
 Vib (Bot)    3  0.147165D+01          0.167805          0.386385
 Vib (Bot)    4  0.102378D+01          0.010208          0.023504
 Vib (Bot)    5  0.992421D+00         -0.003304         -0.007608
 Vib (Bot)    6  0.742588D+00         -0.129252         -0.297614
 Vib (V=0)       0.543696D+02          1.735356          3.995805
 Vib (V=0)    1  0.271496D+01          0.433763          0.998776
 Vib (V=0)    2  0.261269D+01          0.417087          0.960379
 Vib (V=0)    3  0.205427D+01          0.312658          0.719921
 Vib (V=0)    4  0.163936D+01          0.214673          0.494303
 Vib (V=0)    5  0.161126D+01          0.207166          0.477017
 Vib (V=0)    6  0.139523D+01          0.144646          0.333059
 Electronic      0.100000D+01          0.000000          0.000000
 Translational   0.182772D+08          7.261910         16.721166
 Rotational      0.581524D+05          4.764568         10.970822
 ***** Axes restored to original set *****
 -------------------------------------------------------------------
 Center     Atomic                   Forces (Hartrees/Bohr)
 Number     Number              X              Y              Z
 -------------------------------------------------------------------
      1        8          -0.000053245   -0.000009406    0.000002746
      2        6           0.000050983   -0.000029100   -0.000011114
      3        6          -0.000085527   -0.000057356    0.000000615
      4        1           0.000020344    0.000013921    0.000002018
      5        1           0.000020964    0.000014019   -0.000001790
      6        8           0.000040658    0.000050422   -0.000000440
      7        1          -0.000001660    0.000022065    0.000003834
      8        1           0.000007484   -0.000004566    0.000004130
 -------------------------------------------------------------------
 Cartesian Forces:  Max     0.000085527 RMS     0.000031058
 FormGI is forming the generalized inverse of G from B-inverse, IUseBI=4.

 GradGradGradGradGradGradGradGradGradGradGradGradGradGradGradGradGradGrad
 Berny optimization.
 Internal  Forces:  Max     0.000044448 RMS     0.000019215
 Search for a local minimum.
 Step number   1 out of a maximum of    2
 All quantities printed in internal units (Hartrees-Bohrs-Radians)
 Second derivative matrix not updated -- analytic derivatives used.
 ITU=  0
     Eigenvalues ---    0.00094   0.00168   0.00238   0.00391   0.00512
     Eigenvalues ---    0.01805   0.05455   0.07558   0.09188   0.10417
     Eigenvalues ---    0.12288   0.15147   0.28953   0.30123   0.30516
     Eigenvalues ---    0.30869   0.80762   0.85759
 Angle between quadratic step and forces=  57.78 degrees.
 Linear search not attempted -- first point.
 Iteration  1 RMS(Cart)=  0.00079336 RMS(Int)=  0.00000025
 Iteration  2 RMS(Cart)=  0.00000026 RMS(Int)=  0.00000006
 Variable       Old X    -DE/DX   Delta X   Delta X   Delta X     New X
                                 (Linear)    (Quad)   (Total)
    R1        2.27480  -0.00002   0.00000  -0.00001  -0.00001   2.27479
    R2        5.19139   0.00001   0.00000   0.00002   0.00002   5.19141
    R3        2.08826   0.00002   0.00000   0.00003   0.00003   2.08830
    R4        2.08934  -0.00001   0.00000  -0.00002  -0.00002   2.08933
    R5        2.08788  -0.00001   0.00000  -0.00006  -0.00006   2.08782
    R6        2.08787  -0.00001   0.00000  -0.00005  -0.00005   2.08782
    R7        2.27634   0.00004   0.00000   0.00009   0.00009   2.27643
    R8        4.63944  -0.00001   0.00000  -0.00203  -0.00203   4.63741
    A1        1.75932  -0.00004   0.00000  -0.00123  -0.00123   1.75809
    A2        2.11941   0.00004   0.00000   0.00022   0.00022   2.11963
    A3        2.11605  -0.00002   0.00000  -0.00011  -0.00011   2.11594
    A4        2.04772  -0.00002   0.00000  -0.00011  -0.00011   2.04762
    A5        1.49627   0.00001   0.00000  -0.00031  -0.00031   1.49596
    A6        1.49617   0.00001   0.00000  -0.00020  -0.00020   1.49597
    A7        1.72732   0.00003   0.00000   0.00101   0.00101   1.72833
    A8        2.02516   0.00001   0.00000   0.00015   0.00015   2.02532
    A9        2.12893  -0.00001   0.00000  -0.00008  -0.00008   2.12885
   A10        2.12894  -0.00001   0.00000  -0.00008  -0.00008   2.12885
   A11        1.71847  -0.00004   0.00000  -0.00105  -0.00105   1.71743
   A12        2.10025   0.00000   0.00000   0.00105   0.00105   2.10130
    D1       -0.00004   0.00000   0.00000   0.00004   0.00004   0.00000
    D2        3.14144   0.00000   0.00000   0.00015   0.00015   3.14159
    D3       -2.12436   0.00001   0.00000  -0.00007  -0.00007  -2.12442
    D4        2.12471  -0.00001   0.00000  -0.00028  -0.00028   2.12442
    D5        0.00018   0.00000   0.00000  -0.00018  -0.00018   0.00000
    D6       -0.00004   0.00000   0.00000   0.00004   0.00004   0.00000
    D7       -3.14153   0.00000   0.00000  -0.00006  -0.00006  -3.14159
    D8       -0.00013   0.00000   0.00000   0.00013   0.00013   0.00000
    D9        1.58034   0.00003   0.00000   0.00039   0.00039   1.58072
   D10       -1.58047  -0.00003   0.00000  -0.00025  -0.00025  -1.58072
   D11        0.00019   0.00000   0.00000  -0.00019  -0.00019   0.00000
         Item               Value     Threshold  Converged?
 Maximum Force            0.000044     0.000450     YES
 RMS     Force            0.000019     0.000300     YES
 Maximum Displacement     0.001863     0.001800     NO 
 RMS     Displacement     0.000793     0.001200     YES
 Predicted change in Energy=-8.799298D-08
                           ----------------------------
                           ! Non-Optimized Parameters !
                           ! (Angstroms and Degrees)  !
 --------------------------                            --------------------------
 ! Name  Definition              Value          Derivative Info.                !
 --------------------------------------------------------------------------------
 ! R1    R(1,2)                  1.2038         -DE/DX =    0.0                 !
 ! R2    R(1,3)                  2.7472         -DE/DX =    0.0                 !
 ! R3    R(2,7)                  1.1051         -DE/DX =    0.0                 !
 ! R4    R(2,8)                  1.1056         -DE/DX =    0.0                 !
 ! R5    R(3,4)                  1.1048         -DE/DX =    0.0                 !
 ! R6    R(3,5)                  1.1048         -DE/DX =    0.0                 !
 ! R7    R(3,6)                  1.2046         -DE/DX =    0.0                 !
 ! R8    R(6,7)                  2.454          -DE/DX =    0.0                 !
 ! A1    A(2,1,3)              100.7312         -DE/DX =    0.0                 !
 ! A2    A(1,2,7)              121.4458         -DE/DX =    0.0                 !
 ! A3    A(1,2,8)              121.2344         -DE/DX =    0.0                 !
 ! A4    A(7,2,8)              117.3198         -DE/DX =    0.0                 !
 ! A5    A(1,3,4)               85.7124         -DE/DX =    0.0                 !
 ! A6    A(1,3,5)               85.7125         -DE/DX =    0.0                 !
 ! A7    A(1,3,6)               99.0262         -DE/DX =    0.0                 !
 ! A8    A(4,3,5)              116.0422         -DE/DX =    0.0                 !
 ! A9    A(4,3,6)              121.9744         -DE/DX =    0.0                 !
 ! A10   A(5,3,6)              121.9744         -DE/DX =    0.0                 !
 ! A11   A(3,6,7)               98.4012         -DE/DX =    0.0                 !
 ! A12   A(2,7,6)              120.3956         -DE/DX =    0.0                 !
 ! D1    D(3,1,2,7)              0.0            -DE/DX =    0.0                 !
 ! D2    D(3,1,2,8)            180.0            -DE/DX =    0.0                 !
 ! D3    D(2,1,3,4)           -121.7204         -DE/DX =    0.0                 !
 ! D4    D(2,1,3,5)            121.7205         -DE/DX =    0.0                 !
 ! D5    D(2,1,3,6)              0.0            -DE/DX =    0.0                 !
 ! D6    D(1,2,7,6)              0.0            -DE/DX =    0.0                 !
 ! D7    D(8,2,7,6)           -179.9999         -DE/DX =    0.0                 !
 ! D8    D(1,3,6,7)              0.0            -DE/DX =    0.0                 !
 ! D9    D(4,3,6,7)             90.5686         -DE/DX =    0.0                 !
 ! D10   D(5,3,6,7)            -90.5687         -DE/DX =    0.0                 !
 ! D11   D(3,6,7,2)              0.0            -DE/DX =    0.0                 !
 --------------------------------------------------------------------------------
 GradGradGradGradGradGradGradGradGradGradGradGradGradGradGradGradGradGrad


 ----------------------------------------------------------------------

 Electric dipole moment (input orientation):
 (Debye = 10**-18 statcoulomb cm , SI units = C m)
                  (au)            (Debye)         (10**-30 SI)
   Tot        0.468451D+00      0.119068D+01      0.397169D+01
   x         -0.465793D+00     -0.118393D+01     -0.394916D+01
   y         -0.498274D-01     -0.126649D+00     -0.422455D+00
   z         -0.207793D-03     -0.528157D-03     -0.176174D-02

 Dipole polarizability, Alpha (input orientation).
 (esu units = cm**3 , SI units = C**2 m**2 J**-1)
 Alpha(0;0):
               (au)            (10**-24 esu)      (10**-40 SI)
   iso        0.337294D+02      0.499817D+01      0.556122D+01
   aniso      0.119007D+02      0.176350D+01      0.196215D+01
   xx         0.357865D+02      0.530302D+01      0.590040D+01
   yx        -0.207814D+01     -0.307949D+00     -0.342639D+00
   yy         0.390028D+02      0.577962D+01      0.643069D+01
   zx         0.114380D-02      0.169494D-03      0.188588D-03
   zy        -0.130466D-03     -0.193330D-04     -0.215109D-04
   zz         0.263987D+02      0.391188D+01      0.435256D+01

 ----------------------------------------------------------------------

 Dipole orientation:
     8          0.11741595         -1.08598646          2.63110691
     6         -0.12100607          1.14292069          3.01820051
     6          0.12503282         -1.17667590         -2.55948919
     1         -1.51978803         -2.45066760         -2.38415907
     1          2.00204024         -2.07430492         -2.38535626
     8         -0.11333421          1.05256833         -2.95368875
     1         -0.26804591          2.51140513          1.44770056
     1         -0.20179308          1.90245994          4.96291948

 Electric dipole moment (dipole orientation):
 (Debye = 10**-18 statcoulomb cm , SI units = C m)
                  (au)            (Debye)         (10**-30 SI)
   Tot        0.468451D+00      0.119068D+01      0.397169D+01
   x          0.000000D+00      0.000000D+00      0.000000D+00
   y          0.000000D+00      0.000000D+00      0.000000D+00
   z          0.468451D+00      0.119068D+01      0.397169D+01

 Dipole polarizability, Alpha (dipole orientation).
 (esu units = cm**3 , SI units = C**2 m**2 J**-1)
 Alpha(0;0):
               (au)            (10**-24 esu)      (10**-40 SI)
   iso        0.337294D+02      0.499817D+01      0.556122D+01
   aniso      0.119007D+02      0.176350D+01      0.196215D+01
   xx         0.265458D+02      0.393368D+01      0.437680D+01
   yx        -0.137520D+01     -0.203784D+00     -0.226741D+00
   yy         0.392589D+02      0.581758D+01      0.647293D+01
   zx        -0.177015D+00     -0.262310D-01     -0.291859D-01
   zy         0.168167D+01      0.249197D+00      0.277270D+00
   zz         0.353834D+02      0.524327D+01      0.583393D+01

 ----------------------------------------------------------------------
 1\1\GINC-HRG02\Freq\RB3LYP\6-311+G(2d,p)\C2H4O2\HASHMI\01-Jul-2023\0\\
 #N Geom=AllCheck Guess=TCheck SCRF=Check GenChk RB3LYP/6-311+G(2d,p) F
 req\\Title Card Required\\0,1\O,-1.3229405138,-0.7228453001,0.00003715
 3\C,-1.6527931134,0.4348526961,-0.0000476029\C,1.4133438232,-0.4785578
 149,0.000158737\H,1.3829572501,-1.0628659737,-0.9370550473\H,1.3827817
 268,-1.0630853178,0.9372279154\O,1.4945697028,0.7232898771,0.000305278
 9\H,-0.9039057836,1.2474580512,-0.0000201902\H,-2.7190490921,0.7272957
 82,-0.000260244\\Version=EM64L-G16RevB.01\State=1-A\HF=-229.0935321\RM
 SD=6.181e-10\RMSF=3.106e-05\ZeroPoint=0.0554003\Thermal=0.0620455\Dipo
 le=-0.4657931,-0.0498274,-0.0002078\DipoleDeriv=-0.6431298,0.1039454,-
 0.0000467,0.1561465,-0.8448513,0.0000626,-0.0000291,0.0000391,-0.30442
 99,0.78343,-0.097775,0.0000998,-0.1396394,0.8888889,-0.0000757,0.00011
 16,-0.0000753,0.1533543,0.4104947,0.0681094,-0.0000271,0.1812596,1.046
 0656,0.0000664,-0.000029,0.0000535,0.7501046,0.0763095,-0.0043299,0.00
 42217,0.0041368,-0.0522071,-0.0849273,-0.0085364,-0.1284335,-0.1642983
 ,0.0763129,-0.0043509,-0.0041807,0.004122,-0.0522508,0.0849471,0.00857
 94,0.1284476,-0.1642351,-0.4257489,-0.0497081,-0.0000017,-0.1843831,-0
 .9663393,-0.0000848,-0.0000119,-0.000067,-0.4562337,-0.0437209,-0.1177
 068,-0.000019,-0.0740985,-0.0479361,-0.0000008,-0.0000117,0.0000061,0.
 0977008,-0.2339474,0.1018158,-0.0000464,0.0524562,0.0286302,0.0000124,
 -0.0000729,0.0000295,0.0880373\Polar=35.7865497,-2.0781414,39.0028101,
 0.0011438,-0.0001305,26.3986996\Quadrupole=1.0518187,-1.1466778,0.0948
 592,-5.5434001,-0.0000559,-0.0005379\PG=C01 [X(C2H4O2)]\NImag=0\\0.139
 86057,-0.20512184,0.80094059,0.00002540,-0.00005957,0.02088368,-0.1568
 0013,0.17337319,-0.00002015,0.62021721,0.17885557,-0.72521280,0.000049
 66,-0.09844528,0.94432489,-0.00002114,0.00005072,-0.05720360,0.0000694
 1,-0.00005247,0.17394385,0.00392476,-0.00058655,-0.00000020,-0.0037942
 7,0.00534737,-0.00000066,0.17102759,-0.00146836,-0.00526362,-0.0000001
 2,0.00373684,0.00427557,0.00000026,0.04329232,0.96300890,-0.00000030,0
 .,-0.00518811,-0.00000041,0.00000046,0.00110650,-0.00003186,0.00004370
 ,0.58949745,-0.00120165,0.00026258,0.00091000,-0.00028886,-0.00033676,
 0.00013636,-0.05554418,-0.00169352,-0.00675740,0.02085810,0.00031969,0
 .00041730,0.00039615,0.00001350,-0.00042099,-0.00006760,-0.00220775,-0
 .09764911,-0.08284509,0.00641561,0.12962996,-0.00061955,0.00088576,0.0
 0105177,-0.00023820,-0.00084251,-0.00011335,-0.00311633,-0.07834266,-0
 .23985148,0.00661456,0.10704838,0.24151888,-0.00120253,0.00026315,-0.0
 0091027,-0.00028898,-0.00033708,-0.00013630,-0.05554470,-0.00171082,0.
 00679155,0.01817144,-0.00093490,-0.00107520,0.02086083,0.00031939,0.00
 041767,-0.00039659,0.00001344,-0.00042133,0.00006768,-0.00222401,-0.09
 768874,0.08288031,-0.00093327,0.00953066,-0.01137615,0.00643750,0.1296
 8140,0.00061963,-0.00088591,0.00105143,0.00023829,0.00084256,-0.000113
 38,0.00314966,0.07837868,-0.23981454,0.00108174,0.01138230,-0.01880769
 ,-0.00665438,-0.10707514,0.24146896,-0.00384610,-0.00107037,-0.0000007
 3,0.00025579,-0.00070104,0.00000024,-0.06088541,-0.04535562,-0.0000015
 3,0.01801269,-0.00346320,-0.00146026,0.01801170,-0.00346998,0.00146003
 ,0.02876616,-0.00352174,0.00333811,0.00000008,-0.00076079,-0.00576684,
 0.00000014,-0.04196236,-0.76288029,-0.00007936,-0.00400834,-0.04159437
 ,-0.01769032,-0.00401174,-0.04160635,0.01767513,0.05567179,0.84535217,
 -0.00000031,0.00000013,0.00164138,-0.00000006,-0.00000026,-0.00030926,
 -0.00000109,-0.00008055,-0.10656227,-0.00185902,-0.03577604,0.01636921
 ,0.00185841,0.03576183,0.01638236,0.00000219,0.00009492,0.07321268,0.0
 2302354,0.00367341,0.00000077,-0.18704647,-0.10953546,-0.00000914,-0.0
 0011389,0.00361964,0.00000031,-0.00002120,-0.00020444,-0.00007967,-0.0
 0002130,-0.00020450,0.00007954,0.00022652,-0.00170487,-0.00000017,0.17
 865849,-0.01732682,-0.05079944,0.00000136,-0.10749435,-0.15268516,-0.0
 0000581,-0.00028921,-0.00219173,-0.00000003,0.00014404,0.00004494,0.00
 014826,0.00014408,0.00004499,-0.00014830,-0.00117527,0.00139794,-0.000
 00007,0.12124189,0.19610124,0.00000140,0.00000305,0.01987116,-0.000006
 36,-0.00000384,-0.05962819,-0.00000003,0.00000057,-0.00036107,0.000153
 79,-0.00005461,0.00003216,-0.00015380,0.00005447,0.00003218,0.00000008
 ,-0.00000036,-0.00053305,0.00001132,0.00000298,0.02148227,-0.00375846,
 0.02920643,-0.00000482,-0.27225428,0.02515268,-0.00003877,0.00093010,-
 0.00042047,-0.00000035,0.00001366,0.00006150,-0.00002535,0.00001353,0.
 00006145,0.00002550,-0.00054136,0.00029805,0.00000004,-0.01470570,0.00
 475564,-0.00000640,0.29030251,0.04794412,-0.02383783,0.00000902,0.0295
 6345,-0.06409332,0.00000708,-0.00136980,-0.00161099,0.,0.00014967,0.00
 004161,0.00016924,0.00014982,0.00004170,-0.00016932,-0.00043631,0.0017
 5964,0.00000003,-0.01688567,0.00808722,-0.00000226,-0.05911527,0.07961
 197,-0.00000512,0.00000581,0.01789230,-0.00004252,0.00000640,-0.057682
 56,0.00000051,0.00000012,0.00117352,-0.00028003,-0.00008349,-0.0001994
 9,0.00027999,0.00008358,-0.00019932,-0.00000002,-0.00000025,-0.0002010
 4,-0.00000296,0.00000162,0.01910454,0.00005016,-0.00001380,0.02011205\
 \0.00005325,0.00000941,-0.00000275,-0.00005098,0.00002910,0.00001111,0
 .00008553,0.00005736,-0.00000061,-0.00002034,-0.00001392,-0.00000202,-
 0.00002096,-0.00001402,0.00000179,-0.00004066,-0.00005042,0.00000044,0
 .00000166,-0.00002206,-0.00000383,-0.00000748,0.00000457,-0.00000413\\
 \@


 ALL THINGS ARE POSSIBLE EXCEPT SKIING THROUGH A REVOLVING DOOR.
 Job cpu time:       0 days  0 hours  9 minutes 33.8 seconds.
 Elapsed time:       0 days  0 hours  2 minutes 23.7 seconds.
 File lengths (MBytes):  RWF=     17 Int=      0 D2E=      0 Chk=      3 Scr=      1
 Normal termination of Gaussian 16 at Sat Jul  1 10:18:19 2023.
