 Title Card Required
GAUSSIAN             16 MOL ORBITALS    200 PRIMITIVES        8 NUCLEI
  O    1    (CENTRE  1)  -2.48824073 -1.26096996 -0.00012459  CHARGE =  8.0
  C    2    (CENTRE  2)  -3.03959671  0.94600085 -0.00028476  CHARGE =  6.0
  C    3    (CENTRE  3)   2.69493111 -0.96890815  0.00010517  CHARGE =  6.0
  H    4    (CENTRE  4)   2.60138138 -2.07061797 -1.77097220  CHARGE =  1.0
  H    5    (CENTRE  5)   2.60103629 -2.07102139  1.77090928  CHARGE =  1.0
  O    6    (CENTRE  6)   2.92271633  1.29601034  0.00038209  CHARGE =  8.0
  H    7    (CENTRE  7)  -1.57487801  2.43443613 -0.00023295  CHARGE =  1.0
  H    8    (CENTRE  8)  -5.03535085  1.56432398 -0.00068659  CHARGE =  1.0
CENTRE ASSIGNMENTS    1  1  1  1  1  1  1  1  1  1  1  1  1  1  1  1  1  1  1  1
CENTRE ASSIGNMENTS    1  1  1  1  1  1  1  1  1  1  1  1  1  1  1  1  1  1  1  1
CENTRE ASSIGNMENTS    1  1  2  2  2  2  2  2  2  2  2  2  2  2  2  2  2  2  2  2
CENTRE ASSIGNMENTS    2  2  2  2  2  2  2  2  2  2  2  2  2  2  2  2  2  2  2  2
CENTRE ASSIGNMENTS    2  2  2  2  3  3  3  3  3  3  3  3  3  3  3  3  3  3  3  3
CENTRE ASSIGNMENTS    3  3  3  3  3  3  3  3  3  3  3  3  3  3  3  3  3  3  3  3
CENTRE ASSIGNMENTS    3  3  3  3  3  3  4  4  4  4  4  4  4  4  5  5  5  5  5  5
CENTRE ASSIGNMENTS    5  5  6  6  6  6  6  6  6  6  6  6  6  6  6  6  6  6  6  6
CENTRE ASSIGNMENTS    6  6  6  6  6  6  6  6  6  6  6  6  6  6  6  6  6  6  6  6
CENTRE ASSIGNMENTS    6  6  6  6  7  7  7  7  7  7  7  7  8  8  8  8  8  8  8  8
TYPE ASSIGNMENTS      1  1  1  1  1  1  1  1  1  2  2  2  3  3  3  4  4  4  1  2
TYPE ASSIGNMENTS      3  4  1  2  3  4  1  2  3  4  5  6  7  8  9 10  5  6  7  8
TYPE ASSIGNMENTS      9 10  1  1  1  1  1  1  1  1  1  2  2  2  3  3  3  4  4  4
TYPE ASSIGNMENTS      1  2  3  4  1  2  3  4  1  2  3  4  5  6  7  8  9 10  5  6
TYPE ASSIGNMENTS      7  8  9 10  1  1  1  1  1  1  1  1  1  2  2  2  3  3  3  4
TYPE ASSIGNMENTS      4  4  1  2  3  4  1  2  3  4  1  2  3  4  5  6  7  8  9 10
TYPE ASSIGNMENTS      5  6  7  8  9 10  1  1  1  1  1  2  3  4  1  1  1  1  1  2
TYPE ASSIGNMENTS      3  4  1  1  1  1  1  1  1  1  1  2  2  2  3  3  3  4  4  4
TYPE ASSIGNMENTS      1  2  3  4  1  2  3  4  1  2  3  4  5  6  7  8  9 10  5  6
TYPE ASSIGNMENTS      7  8  9 10  1  1  1  1  1  2  3  4  1  1  1  1  1  2  3  4
EXPONENTS  0.8588500D+04 0.1297230D+04 0.2992960D+03 0.8737710D+02 0.2567890D+02
EXPONENTS  0.3740040D+01 0.4211750D+02 0.9628370D+01 0.2853320D+01 0.4211750D+02
EXPONENTS  0.9628370D+01 0.2853320D+01 0.4211750D+02 0.9628370D+01 0.2853320D+01
EXPONENTS  0.4211750D+02 0.9628370D+01 0.2853320D+01 0.9056610D+00 0.9056610D+00
EXPONENTS  0.9056610D+00 0.9056610D+00 0.2556110D+00 0.2556110D+00 0.2556110D+00
EXPONENTS  0.2556110D+00 0.8450000D-01 0.8450000D-01 0.8450000D-01 0.8450000D-01
EXPONENTS  0.2584000D+01 0.2584000D+01 0.2584000D+01 0.2584000D+01 0.2584000D+01
EXPONENTS  0.2584000D+01 0.6460000D+00 0.6460000D+00 0.6460000D+00 0.6460000D+00
EXPONENTS  0.6460000D+00 0.6460000D+00 0.4563240D+04 0.6820240D+03 0.1549730D+03
EXPONENTS  0.4445530D+02 0.1302900D+02 0.1827730D+01 0.2096420D+02 0.4803310D+01
EXPONENTS  0.1459330D+01 0.2096420D+02 0.4803310D+01 0.1459330D+01 0.2096420D+02
EXPONENTS  0.4803310D+01 0.1459330D+01 0.2096420D+02 0.4803310D+01 0.1459330D+01
EXPONENTS  0.4834560D+00 0.4834560D+00 0.4834560D+00 0.4834560D+00 0.1455850D+00
EXPONENTS  0.1455850D+00 0.1455850D+00 0.1455850D+00 0.4380000D-01 0.4380000D-01
EXPONENTS  0.4380000D-01 0.4380000D-01 0.1252000D+01 0.1252000D+01 0.1252000D+01
EXPONENTS  0.1252000D+01 0.1252000D+01 0.1252000D+01 0.3130000D+00 0.3130000D+00
EXPONENTS  0.3130000D+00 0.3130000D+00 0.3130000D+00 0.3130000D+00 0.4563240D+04
EXPONENTS  0.6820240D+03 0.1549730D+03 0.4445530D+02 0.1302900D+02 0.1827730D+01
EXPONENTS  0.2096420D+02 0.4803310D+01 0.1459330D+01 0.2096420D+02 0.4803310D+01
EXPONENTS  0.1459330D+01 0.2096420D+02 0.4803310D+01 0.1459330D+01 0.2096420D+02
EXPONENTS  0.4803310D+01 0.1459330D+01 0.4834560D+00 0.4834560D+00 0.4834560D+00
EXPONENTS  0.4834560D+00 0.1455850D+00 0.1455850D+00 0.1455850D+00 0.1455850D+00
EXPONENTS  0.4380000D-01 0.4380000D-01 0.4380000D-01 0.4380000D-01 0.1252000D+01
EXPONENTS  0.1252000D+01 0.1252000D+01 0.1252000D+01 0.1252000D+01 0.1252000D+01
EXPONENTS  0.3130000D+00 0.3130000D+00 0.3130000D+00 0.3130000D+00 0.3130000D+00
EXPONENTS  0.3130000D+00 0.3386500D+02 0.5094790D+01 0.1158790D+01 0.3258400D+00
EXPONENTS  0.1027410D+00 0.7500000D+00 0.7500000D+00 0.7500000D+00 0.3386500D+02
EXPONENTS  0.5094790D+01 0.1158790D+01 0.3258400D+00 0.1027410D+00 0.7500000D+00
EXPONENTS  0.7500000D+00 0.7500000D+00 0.8588500D+04 0.1297230D+04 0.2992960D+03
EXPONENTS  0.8737710D+02 0.2567890D+02 0.3740040D+01 0.4211750D+02 0.9628370D+01
EXPONENTS  0.2853320D+01 0.4211750D+02 0.9628370D+01 0.2853320D+01 0.4211750D+02
EXPONENTS  0.9628370D+01 0.2853320D+01 0.4211750D+02 0.9628370D+01 0.2853320D+01
EXPONENTS  0.9056610D+00 0.9056610D+00 0.9056610D+00 0.9056610D+00 0.2556110D+00
EXPONENTS  0.2556110D+00 0.2556110D+00 0.2556110D+00 0.8450000D-01 0.8450000D-01
EXPONENTS  0.8450000D-01 0.8450000D-01 0.2584000D+01 0.2584000D+01 0.2584000D+01
EXPONENTS  0.2584000D+01 0.2584000D+01 0.2584000D+01 0.6460000D+00 0.6460000D+00
EXPONENTS  0.6460000D+00 0.6460000D+00 0.6460000D+00 0.6460000D+00 0.3386500D+02
EXPONENTS  0.5094790D+01 0.1158790D+01 0.3258400D+00 0.1027410D+00 0.7500000D+00
EXPONENTS  0.7500000D+00 0.7500000D+00 0.3386500D+02 0.5094790D+01 0.1158790D+01
EXPONENTS  0.3258400D+00 0.1027410D+00 0.7500000D+00 0.7500000D+00 0.7500000D+00
MO    1     MO 0.0        OCC NO =    2.0000000  ORB. ENERGY =  -19.158527
  0.66431892D+00  0.12217851D+01  0.19998005D+01  0.26949847D+01  0.26659139D+01
  0.29672383D+00  0.63043601D+00  0.16851842D+01 -0.24069450D-02 -0.14701583D-02
 -0.15094786D-02 -0.11407789D-02  0.66293987D-02  0.68067063D-02  0.51441251D-02
 -0.42187548D-06 -0.43315881D-06 -0.32735702D-06  0.89556209D-02 -0.53032175D-04
  0.31762712D-03 -0.23729513D-07 -0.27209056D-02  0.10107425D-03 -0.55532126D-03
  0.38351405D-07  0.36408491D-03  0.14966030D-04 -0.15690057D-04  0.26229510D-08
 -0.91810404D-03  0.21886738D-02 -0.12705698D-02 -0.16318420D-02  0.16457548D-06
 -0.50683097D-06  0.28073680D-04 -0.24717303D-03  0.21909935D-03  0.12305024D-03
 -0.61187894D-07  0.60727355D-07  0.81049098D-08  0.15088042D-07  0.24819687D-07
  0.33328674D-07  0.31380203D-07  0.25787202D-08 -0.32512286D-05 -0.86391231D-05
  0.11646142D-07  0.15980932D-03  0.14954214D-03  0.11582617D-03 -0.61827772D-03
 -0.57855562D-03 -0.44811369D-03  0.63726095D-07  0.59631924D-07  0.46187230D-07
  0.32867533D-03 -0.31129293D-04  0.16978968D-03 -0.35338767D-07  0.85900962D-03
  0.80401597D-04 -0.32214048D-03  0.16791942D-07 -0.18866728D-03 -0.25199151D-04
  0.33055904D-04 -0.35630052D-08  0.48972946D-03 -0.97029489D-03  0.48056543D-03
  0.81345665D-03 -0.24274331D-07  0.20400055D-06  0.13512454D-03  0.75012360D-05
 -0.14262577D-03  0.53666706D-04  0.77008702D-07 -0.95540138D-08  0.35029561D-05
  0.65210779D-05  0.10727112D-04  0.14404711D-04  0.13562578D-04  0.11145273D-05
 -0.13026355D-04 -0.34613464D-04  0.46661368D-07 -0.34550062D-04 -0.32330346D-04
 -0.25041103D-04 -0.19083864D-04 -0.17857795D-04 -0.13831552D-04 -0.11407175D-07
 -0.10674305D-07 -0.82676619D-08  0.62108386D-04  0.24255264D-04  0.10640526D-03
  0.29208136D-07  0.22630513D-03  0.83448493D-05  0.65190120D-04  0.31983138D-07
  0.80029772D-04 -0.55937370D-05  0.12069403D-04  0.12043425D-08 -0.95225690D-04
  0.97631990D-04 -0.24063001D-05 -0.59564348D-04  0.74255273D-08  0.16586257D-07
 -0.17160308D-04  0.10564776D-04  0.65955319D-05  0.12250595D-04 -0.16966951D-07
 -0.19661805D-07  0.89546120D-05  0.16152843D-04  0.23813548D-04 -0.58751154D-04
  0.11008522D-04  0.40666208D-04 -0.30442160D-04 -0.28887239D-04  0.89559525D-05
  0.16155260D-04  0.23817112D-04 -0.58817645D-04  0.10981972D-04  0.40692561D-04
 -0.30479478D-04  0.28923219D-04  0.28842165D-04  0.53045196D-04  0.86823624D-04
  0.11700584D-03  0.11574370D-03  0.12882604D-04  0.15047933D-04  0.40223809D-04
 -0.57451582D-07  0.14048588D-03  0.14424327D-03  0.10901094D-03  0.26738315D-04
  0.27453449D-04  0.20747770D-04 -0.11677953D-07 -0.11990287D-07 -0.90615835D-08
  0.75342211D-04 -0.12382812D-03 -0.43345939D-04  0.80851400D-08 -0.13920697D-03
  0.70278516D-04  0.15653953D-03  0.15272366D-07 -0.19095108D-03  0.47242350D-05
  0.22587980D-04  0.30023786D-08  0.94066485D-04  0.13694359D-03 -0.23101008D-03
  0.24589447D-03  0.44418226D-07  0.87314653D-07 -0.23577209D-05 -0.88460768D-04
  0.90818489D-04 -0.83436845D-04 -0.13220678D-07 -0.46265434D-07  0.44932413D-05
  0.81051662D-05  0.11949151D-04 -0.43924364D-03  0.12714000D-03  0.71646410D-04
  0.45127990D-03 -0.28973301D-07 -0.11443834D-04 -0.20643043D-04 -0.30433287D-04
 -0.35251737D-03  0.52346393D-05 -0.27732683D-03  0.36283200D-03 -0.77704042D-07
MO    2     MO 0.0        OCC NO =    2.0000000  ORB. ENERGY =  -19.136492
 -0.29132836D-04 -0.53579783D-04 -0.87698628D-04 -0.11818502D-03 -0.11691016D-03
 -0.13012435D-04 -0.37650445D-04 -0.10064135D-03  0.14374584D-06 -0.22429480D-03
 -0.23029371D-03 -0.17404301D-03  0.11663708D-04  0.11975662D-04  0.90505305D-05
 -0.29838124D-07 -0.30636164D-07 -0.23153087D-07  0.60086804D-04  0.19911006D-03
 -0.19091829D-04  0.26751000D-07 -0.19842864D-03 -0.85764007D-04 -0.16596526D-03
 -0.84358560D-08 -0.20619878D-03  0.10305445D-04 -0.30478598D-04  0.40707230D-08
  0.10143093D-03  0.97948278D-04 -0.19937921D-03  0.30623972D-03  0.54805212D-07
  0.22739866D-07  0.20404813D-07 -0.83500204D-04  0.83479799D-04 -0.73846302D-04
 -0.15402406D-07 -0.92942002D-09  0.12722210D-05  0.23683575D-05  0.38959258D-05
  0.52315745D-05  0.49257246D-05  0.40477958D-06 -0.46824731D-05 -0.12442208D-04
  0.16772965D-07 -0.73676685D-05 -0.68943224D-05 -0.53399192D-05  0.12408390D-03
  0.11611196D-03  0.89933203D-04 -0.20873682D-08 -0.19532623D-08 -0.15128772D-08
  0.25492074D-04  0.35154270D-04 -0.19657682D-03  0.10580135D-07  0.22451924D-03
  0.15823532D-04 -0.91210235D-04  0.86913402D-08  0.11118940D-03  0.16043843D-04
 -0.82808663D-05  0.13160031D-08  0.30107626D-04  0.55198409D-05 -0.35627467D-04
 -0.77514520D-04 -0.10520644D-08 -0.11770316D-08 -0.33167497D-04  0.29873756D-04
  0.32937405D-05 -0.10886042D-03  0.53844832D-08 -0.19983492D-07  0.49320316D-06
  0.91814346D-06  0.15103374D-05  0.20281296D-05  0.19095605D-05  0.15692130D-06
 -0.30970757D-05 -0.82295100D-05  0.11093954D-07 -0.61401514D-04 -0.57456689D-04
 -0.44502426D-04  0.62419235D-03  0.58409025D-03  0.45240047D-03  0.63881952D-07
  0.59777767D-07  0.46300191D-07  0.33103035D-03  0.88358693D-04 -0.13661446D-03
 -0.20943099D-08  0.92454296D-03 -0.33090516D-04  0.33710088D-03  0.42488507D-07
 -0.23105604D-03  0.13187671D-04 -0.40047093D-04 -0.31553912D-08  0.35178175D-03
 -0.10012794D-02  0.64949769D-03 -0.27790653D-03 -0.73285694D-07 -0.40254486D-06
 -0.12377661D-03  0.15080007D-05  0.12226861D-03  0.90176502D-05 -0.53121445D-07
 -0.34395283D-07  0.94777097D-05  0.17096436D-04  0.25204653D-04 -0.44068863D-03
  0.83753435D-04 -0.81638865D-05 -0.43447643D-03 -0.18545050D-03  0.94783492D-05
  0.17097590D-04  0.25206354D-04 -0.44071337D-03  0.83750358D-04 -0.81931397D-05
 -0.43452907D-03  0.18536075D-03  0.66432072D+00  0.12217884D+01  0.19998059D+01
  0.26949921D+01  0.26659212D+01  0.29672463D+00  0.63042728D+00  0.16851608D+01
 -0.24069117D-02 -0.70259612D-03 -0.72138751D-03 -0.54518403D-03 -0.67481759D-02
 -0.69286603D-02 -0.52362910D-02 -0.85952723D-06 -0.88251584D-06 -0.66695575D-06
  0.89884457D-02 -0.71647017D-04 -0.31935496D-03 -0.34764453D-07 -0.27802186D-02
  0.10131400D-03  0.60173008D-03  0.75670239D-07  0.38174293D-03  0.34328485D-05
  0.16626947D-04  0.17972070D-08 -0.11929663D-02  0.23982664D-02 -0.12053001D-02
  0.87602153D-03  0.93293521D-07  0.89371709D-06  0.21203100D-03 -0.28669023D-03
  0.74659225D-04 -0.14836225D-03  0.13533243D-07 -0.96921863D-07 -0.28143399D-05
 -0.50766677D-05 -0.74843463D-05  0.94321442D-04 -0.23445094D-04 -0.90273052D-04
 -0.60534394D-04 -0.60532283D-08  0.32600719D-05  0.58807045D-05  0.86697085D-05
 -0.10136518D-04  0.16602515D-04 -0.55084634D-05 -0.49723680D-04  0.12803943D-07
MO    3     MO 0.0        OCC NO =    2.0000000  ORB. ENERGY =  -10.280819
 -0.12372625D-03 -0.22755168D-03 -0.37245335D-03 -0.50192813D-03 -0.49651382D-03
 -0.55263406D-04 -0.19236414D-03 -0.51419812D-03  0.73442810D-06 -0.95125330D-03
 -0.97669519D-03 -0.73813119D-03  0.38092456D-02  0.39111263D-02  0.29558089D-02
 -0.28857207D-06 -0.29629012D-06 -0.22391937D-06  0.11306217D-02  0.56874226D-03
 -0.22632948D-02  0.16811770D-06 -0.31079545D-02  0.46379437D-03 -0.18785968D-02
  0.13200035D-06  0.34205170D-03 -0.54059311D-04  0.18324464D-03 -0.13659121D-07
 -0.66365855D-03  0.24159332D-02 -0.17522747D-02 -0.16052240D-02  0.36294355D-06
 -0.55389644D-06  0.79544496D-03 -0.21907609D-02  0.13953160D-02  0.15798733D-02
 -0.22739290D-06  0.50090190D-06  0.43809751D+00  0.81555918D+00  0.13415872D+01
  0.18015264D+01  0.16962050D+01  0.13938846D+00  0.37078600D+00  0.98524783D+00
 -0.13281829D-02 -0.57112985D-05 -0.53443682D-05 -0.41394198D-05 -0.65859920D-03
 -0.61628658D-03 -0.47733778D-03  0.26290211D-06  0.24601160D-06  0.19054549D-06
  0.87288758D-02  0.61354949D-03 -0.22820799D-02  0.33902453D-07 -0.11300707D-03
  0.10142026D-03 -0.31923132D-03  0.27075835D-07 -0.19716696D-03  0.71300585D-06
  0.14709085D-05  0.29462717D-08 -0.16953474D-03  0.30206589D-02 -0.28511242D-02
 -0.16338302D-02  0.84621089D-06 -0.83019770D-06  0.93983442D-04  0.34693458D-03
 -0.44091802D-03 -0.10742158D-03  0.15972822D-06 -0.10354461D-06 -0.28198343D-04
 -0.52493833D-04 -0.86351862D-04 -0.11595606D-03 -0.10917700D-03 -0.89718008D-05
 -0.21055544D-04 -0.55948523D-04  0.75422518D-07 -0.62297102D-04 -0.58294739D-04
 -0.45151528D-04 -0.74144817D-04 -0.69381281D-04 -0.53738484D-04 -0.16552704D-07
 -0.15489253D-07 -0.11997025D-07 -0.73635727D-05  0.50627029D-04  0.14416890D-03
  0.17652778D-07  0.27555433D-03  0.37789917D-05  0.13150133D-03  0.34900722D-08
  0.97506141D-04 -0.23058387D-04 -0.10628927D-04 -0.28737418D-08 -0.58896277D-05
 -0.22995609D-04  0.28885237D-04  0.66644553D-04  0.14912281D-07 -0.19016231D-07
 -0.23971165D-04  0.74240861D-04 -0.50269696D-04 -0.63246379D-05  0.61136690D-09
  0.51127153D-07 -0.51358127D-05 -0.92642733D-05 -0.13657981D-04  0.82056570D-04
 -0.44263020D-04 -0.87895723D-05  0.25896168D-04  0.11059584D-04 -0.51352802D-05
 -0.92633128D-05 -0.13656565D-04  0.82096554D-04 -0.44246090D-04 -0.87924180D-05
  0.25901401D-04 -0.11079243D-04  0.30025964D-07  0.55222385D-07  0.90387215D-07
  0.12180824D-06  0.12049429D-06  0.13411358D-07 -0.38222820D-05 -0.10217134D-04
  0.14593111D-07 -0.91716829D-04 -0.94169855D-04 -0.71168270D-04 -0.35835277D-04
 -0.36793715D-04 -0.27806617D-04 -0.26912499D-08 -0.27632291D-08 -0.20882929D-08
  0.43309162D-04  0.67536361D-04  0.45865851D-04  0.23530791D-08 -0.26362550D-03
  0.15457145D-04  0.15481489D-03  0.16950913D-07 -0.21158078D-03  0.64671057D-04
  0.23576100D-04  0.96087431D-08  0.15297740D-03  0.98600692D-05 -0.16283747D-03
  0.10639718D-03  0.63887602D-07  0.21646820D-07 -0.44605705D-04 -0.36341969D-04
  0.80947673D-04 -0.49554487D-04 -0.26733849D-07 -0.14630116D-07  0.10500517D-03
  0.18941435D-03  0.27924668D-03 -0.12331053D-02  0.41343651D-03  0.12206418D-02
  0.13445602D-02  0.32880958D-07  0.84193632D-04  0.15187330D-03  0.22390128D-03
 -0.10406186D-02  0.27800206D-03 -0.16425560D-02  0.63095023D-03 -0.34129833D-06
MO    4     MO 0.0        OCC NO =    2.0000000  ORB. ENERGY =  -10.266310
 -0.60651775D-06 -0.11154798D-05 -0.18258015D-05 -0.24604991D-05 -0.24339577D-05
 -0.27090643D-06 -0.10840526D-04 -0.28977221D-04  0.41388104D-07  0.17414868D-03
  0.17880640D-03  0.13513180D-03  0.58894721D-04  0.60469899D-04  0.45699742D-04
  0.19119109D-07  0.19630462D-07  0.14835597D-07  0.74031620D-04 -0.13895843D-03
 -0.44405961D-04 -0.15625920D-07 -0.30224068D-03  0.49204819D-04 -0.81102615D-04
  0.10321902D-07 -0.10444343D-03  0.18845258D-04 -0.46143973D-04 -0.33197123D-08
 -0.12954240D-03  0.66325043D-04  0.63217357D-04 -0.13412881D-03  0.29566408D-07
  0.69174794D-08  0.18395886D-04 -0.98568689D-05 -0.85390170D-05  0.46436179D-04
 -0.15827285D-07 -0.30142278D-08  0.29547610D-04  0.55005619D-04  0.90483726D-04
  0.12150446D-03  0.11440103D-03  0.94010940D-05  0.25397445D-04  0.67485766D-04
 -0.90975527D-07  0.18405054D-03  0.17222596D-03  0.13339566D-03 -0.44701307D-04
 -0.41829410D-04 -0.32398495D-04  0.29161815D-07  0.27288274D-07  0.21135823D-07
 -0.24803806D-04 -0.16424897D-03  0.93467451D-05 -0.27873269D-07  0.24300329D-03
  0.54796945D-04 -0.13649749D-03  0.18450656D-07  0.74065122D-04  0.14876836D-04
 -0.28352193D-05  0.31032914D-08 -0.42214716D-04 -0.53329415D-04  0.95544131D-04
 -0.13798442D-04 -0.11971375D-07  0.19114178D-07  0.11895106D-04  0.45531232D-04
 -0.57426338D-04 -0.22635806D-04  0.18619798D-07 -0.16967492D-07  0.43810428D+00
  0.81557179D+00  0.13416079D+01  0.18015543D+01  0.16962313D+01  0.13939061D+00
  0.37080374D+00  0.98529497D+00 -0.13282465D-02 -0.11450020D-04 -0.10714398D-04
 -0.82987154D-05  0.59729275D-03  0.55891885D-03  0.43290425D-03  0.64222301D-08
  0.60096251D-08  0.46546869D-08  0.86148505D-02  0.25091457D-03  0.22058567D-02
  0.29290280D-06 -0.59799138D-04  0.21222193D-04  0.23814694D-03  0.33000552D-07
 -0.27783738D-03  0.19759855D-04 -0.40103038D-05  0.10932244D-08 -0.27868074D-02
  0.31668229D-02 -0.38001548D-03  0.11538432D-02 -0.33477855D-06  0.88467157D-06
 -0.42883731D-03  0.32095280D-03  0.10788452D-03  0.14827338D-03 -0.90074783D-07
  0.49022181D-07  0.93773054D-04  0.16915321D-03  0.24937642D-03 -0.11715288D-02
  0.32785515D-03 -0.10190903D-03 -0.10316568D-02 -0.15063623D-02  0.93772430D-04
  0.16915209D-03  0.24937476D-03 -0.11715625D-02  0.32785626D-03 -0.10219941D-03
 -0.10320135D-02  0.15061342D-02 -0.12230036D-03 -0.22492924D-03 -0.36816099D-03
 -0.49614363D-03 -0.49079172D-03 -0.54626519D-04 -0.18486775D-03 -0.49415991D-03
  0.70580757D-06 -0.38627466D-03 -0.39660582D-03 -0.29973233D-03 -0.39062121D-02
 -0.40106862D-02 -0.30310507D-02 -0.48278338D-06 -0.49569573D-06 -0.37461890D-06
  0.10711680D-02  0.23437302D-03  0.23275846D-02  0.28998379D-06 -0.28807961D-02
  0.16977113D-03  0.17822394D-02  0.21835596D-06  0.38435023D-03 -0.29648890D-05
 -0.14899236D-03 -0.16841347D-07 -0.16878909D-02  0.25133522D-02 -0.82546132D-03
  0.85456961D-03 -0.69277291D-07  0.84243361D-06  0.13312766D-02 -0.22897550D-02
  0.95847837D-03 -0.73344576D-03 -0.11304079D-07 -0.80724111D-06  0.45000717D-05
  0.81174874D-05  0.11967316D-04 -0.73630187D-04  0.59300077D-04 -0.37838068D-04
  0.22010294D-04 -0.40685486D-08 -0.23706764D-05 -0.42763621D-05 -0.63044849D-05
 -0.75393456D-04  0.63978901D-04 -0.94632874D-04  0.55589959D-04 -0.29484149D-07
MO    5     MO 0.0        OCC NO =    2.0000000  ORB. ENERGY =   -1.083315
 -0.12947273D+00 -0.23812035D+00 -0.38975201D+00 -0.52524026D+00 -0.51957449D+00
 -0.57830124D-01 -0.23083119D+00 -0.61702227D+00  0.88129162D-03 -0.10001519D+00
 -0.10269016D+00 -0.77607437D-01  0.42005323D+00  0.43128782D+00  0.32594304D+00
 -0.30579940D-04 -0.31397820D-04 -0.23728703D-04  0.32913939D+00 -0.33833972D-01
  0.14057700D+00 -0.10198083D-04  0.86010670D-01 -0.18621822D-02  0.11311826D-01
 -0.78448005D-06 -0.25428132D-02 -0.13531721D-03  0.51744162D-04 -0.23842449D-07
 -0.34572689D-01  0.65189585D-01 -0.30616895D-01 -0.53304953D-01  0.92958296D-06
 -0.14537782D-04 -0.50096585D-02  0.86774714D-02 -0.36678128D-02 -0.70206388D-02
 -0.28545797D-06 -0.18740508D-05 -0.49380898D-01 -0.91927125D-01 -0.15121926D+00
 -0.20306208D+00 -0.19119061D+00 -0.15711405D-01 -0.76949576D-01 -0.20446943D+00
  0.27563908D-03  0.57981780D-01  0.54256660D-01  0.42023881D-01 -0.23110360D+00
 -0.21625603D+00 -0.16749865D+00  0.16165988D-04  0.15127382D-04  0.11716742D-04
  0.10259911D+00  0.14846794D-01 -0.59920764D-01  0.42771466D-05  0.69856152D-02
  0.20754366D-03 -0.67197812D-03  0.94061126D-07  0.13138444D-02  0.16000530D-03
 -0.21835776D-03  0.24722929D-07 -0.17706923D-01  0.43959407D-01 -0.26252484D-01
 -0.32990407D-01  0.37880559D-05 -0.10371995D-04 -0.21566843D-02  0.26362742D-02
 -0.47958985D-03 -0.22171681D-02 -0.45029847D-06 -0.46165793D-06 -0.60305865D-02
 -0.11226496D-01 -0.18467481D-01 -0.24798728D-01 -0.23348937D-01 -0.19187376D-02
 -0.93741423D-02 -0.24908851D-01  0.33578872D-04 -0.27346181D-03 -0.25589288D-03
 -0.19819892D-03  0.25564053D-01  0.23921655D-01  0.18528247D-01  0.29592038D-05
  0.27690857D-05  0.21447639D-05  0.12237461D-01 -0.39447762D-03  0.65573591D-02
  0.70352950D-06  0.41773511D-03 -0.26352464D-03 -0.16392654D-03 -0.16387743D-06
 -0.24067352D-03  0.74937025D-05 -0.65153982D-04 -0.74445426D-08 -0.20549919D-02
  0.47084544D-02 -0.26534624D-02  0.15092529D-02  0.14044499D-06  0.17985560D-05
  0.10345708D-03  0.31867892D-03 -0.42213600D-03  0.76840226D-04  0.14983344D-06
  0.24373199D-06  0.53775192D-03  0.97002774D-03  0.14300766D-02  0.12752245D-02
 -0.21529746D-03 -0.30007695D-03  0.72199872D-03  0.49648984D-03  0.53776026D-03
  0.97004279D-03  0.14300988D-02  0.12755157D-02 -0.21510121D-03 -0.30017308D-03
  0.72224638D-03 -0.49649284D-03 -0.14382912D-01 -0.26452396D-01 -0.43296906D-01
 -0.58348072D-01 -0.57718671D-01 -0.64242528D-02 -0.25604507D-01 -0.68442014D-01
  0.97755585D-04 -0.87049248D-02 -0.89377436D-02 -0.67546430D-02 -0.48128901D-01
 -0.49416139D-01 -0.37345934D-01 -0.61804042D-05 -0.63457032D-05 -0.47957249D-05
  0.36196085D-01 -0.24298279D-02 -0.15758159D-01 -0.20833047D-05  0.95989037D-02
 -0.62383342D-03 -0.17102592D-02 -0.20262696D-06  0.64060097D-03  0.45901085D-04
 -0.13994822D-03 -0.15672224D-07 -0.32876812D-02  0.75698682D-02 -0.42821870D-02
  0.23404656D-02  0.53527441D-06  0.29406354D-05 -0.21052072D-03  0.11934367D-02
 -0.98291597D-03  0.71935212D-03  0.18729147D-06  0.53815057D-06  0.40454811D-02
  0.72974708D-02  0.10758395D-01  0.66912725D-02 -0.65233863D-03 -0.13225646D-02
 -0.45662557D-02  0.16838915D-06  0.40812398D-02  0.73619743D-02  0.10853491D-01
  0.67643841D-02 -0.13973617D-03  0.35570922D-02 -0.32865115D-02  0.79389735D-06
MO    6     MO 0.0        OCC NO =    2.0000000  ORB. ENERGY =   -1.062940
  0.15504002D-01  0.28514254D-01  0.46671726D-01  0.62896070D-01  0.62217610D-01
  0.69249975D-02  0.27688815D-01  0.74013464D-01 -0.10571328D-03  0.18408407D-01
  0.18900752D-01  0.14284123D-01 -0.50573387D-01 -0.51926005D-01 -0.39242748D-01
  0.42453617D-05  0.43589067D-05  0.32942160D-05 -0.39876361D-01  0.47511466D-02
 -0.17007296D-01  0.12648339D-05 -0.95761902D-02  0.11710943D-02 -0.37604371D-03
  0.17107707D-06  0.19805730D-02  0.10692000D-04  0.21738391D-03 -0.32132267D-07
  0.38866828D-02 -0.82184027D-02  0.43317199D-02  0.58869919D-02 -0.24032520D-06
  0.17763817D-05  0.82187673D-03 -0.74327164D-03 -0.78605090D-04  0.16683732D-02
  0.11571600D-06  0.23906194D-06  0.57720161D-02  0.10745144D-01  0.17675660D-01
  0.23735445D-01  0.22347816D-01  0.18364688D-02  0.90060749D-02  0.23930827D-01
 -0.32260427D-04 -0.50341335D-02 -0.47107087D-02 -0.36486259D-02  0.28699300D-01
  0.26855473D-01  0.20800602D-01 -0.18280806D-05 -0.17106331D-05 -0.13249514D-05
 -0.12112077D-01 -0.13528795D-02  0.84625351D-02 -0.51475577D-06 -0.23612820D-02
 -0.20040861D-03  0.57979423D-03 -0.58472313D-07 -0.10635199D-02 -0.16387216D-03
  0.98019808D-04 -0.13576679D-07  0.22650541D-02 -0.54515234D-02  0.31864692D-02
  0.42281710D-02 -0.40468993D-06  0.12710814D-05  0.45190122D-03 -0.45600172D-03
  0.41005028D-05  0.96013291D-03  0.38078427D-07  0.15205547D-06 -0.49492601D-01
 -0.92135071D-01 -0.15156133D+00 -0.20352142D+00 -0.19162309D+00 -0.15746945D-01
 -0.77124346D-01 -0.20493383D+00  0.27626512D-03  0.24514075D-01  0.22939134D-01
  0.17767246D-01  0.23749706D+00  0.22223873D+00  0.17213249D+00  0.28828350D-04
  0.26976232D-04  0.20894135D-04  0.10297796D+00  0.59967345D-02  0.61551213D-01
  0.73574062D-05  0.67812485D-02  0.63074947D-03  0.74786372D-03  0.66794169D-07
  0.18236657D-02 -0.89168526D-04  0.28594706D-03  0.22244441D-07 -0.25374379D-01
  0.47317975D-01 -0.21943595D-01  0.14600271D-01  0.89575706D-06  0.16921661D-04
 -0.51025494D-03  0.29260192D-02 -0.24157643D-02  0.77202462D-03  0.53741533D-06
  0.13074867D-05  0.39911861D-02  0.71995303D-02  0.10614005D-01  0.71811273D-02
 -0.65509963D-03  0.29710400D-03  0.42519327D-02  0.25065081D-02  0.39911540D-02
  0.71994724D-02  0.10613920D-01  0.71812563D-02 -0.65509434D-03  0.29756018D-03
  0.42525570D-02 -0.25055162D-02 -0.12935697D+00 -0.23790744D+00 -0.38940352D+00
 -0.52477063D+00 -0.51910992D+00 -0.57778416D-01 -0.23058976D+00 -0.61637693D+00
  0.88036988D-03 -0.45499074D-01 -0.46715976D-01 -0.35305303D-01 -0.42942780D+00
 -0.44091312D+00 -0.33321729D+00 -0.53363911D-04 -0.54791163D-04 -0.41408074D-04
  0.32837273D+00 -0.14940354D-01 -0.14358499D+00 -0.17831973D-04  0.86231846D-01
 -0.18248812D-02 -0.11624175D-01 -0.15438676D-05 -0.26833067D-02 -0.54712508D-04
 -0.32878857D-05  0.10237905D-09 -0.30034316D-01  0.70800983D-01 -0.40766667D-01
  0.20148470D-01  0.43076134D-05  0.27163258D-04 -0.31217841D-02  0.95742322D-02
 -0.64524482D-02  0.28581144D-02  0.10453055D-05  0.39281827D-05 -0.10491217D-03
 -0.18924658D-03 -0.27899934D-03 -0.73966634D-03  0.47373238D-03  0.98710922D-03
  0.56287234D-03  0.77736623D-07 -0.52536692D-03 -0.94768697D-03 -0.13971404D-02
 -0.76160265D-03 -0.15450868D-03 -0.35643190D-03  0.71687994D-03 -0.14893211D-06
MO    7     MO 0.0        OCC NO =    2.0000000  ORB. ENERGY =   -0.648844
  0.56995910D-01  0.10482428D+00  0.17157489D+00  0.23121893D+00  0.22872477D+00
  0.25457719D-01  0.10307463D+00  0.27552319D+00 -0.39352919D-03 -0.98024494D-01
 -0.10064622D+00 -0.76062744D-01  0.29936917D+00  0.30737599D+00  0.23229746D+00
 -0.32987623D-04 -0.33869899D-04 -0.25596961D-04 -0.15384791D+00 -0.30239380D-01
  0.91002643D-01 -0.10381989D-04 -0.61376769D-01 -0.45366940D-02  0.11226713D-01
 -0.13596310D-05 -0.24725039D-02  0.14756120D-03 -0.39639110D-03  0.54808454D-07
 -0.35602682D-02  0.13473471D-01 -0.99132026D-02 -0.10529734D-01  0.26047481D-05
 -0.48626430D-05 -0.23778099D-03  0.22362162D-02 -0.19984352D-02 -0.14867855D-02
  0.85005314D-06 -0.11050279D-05 -0.70062328D-01 -0.13042753D+00 -0.21455206D+00
 -0.28810740D+00 -0.27126398D+00 -0.22291567D-01 -0.11315176D+00 -0.30066542D+00
  0.40531799D-03 -0.65270604D-01 -0.61077204D-01 -0.47306655D-01  0.22438126D+00
  0.20996558D+00  0.16262645D+00 -0.30482952D-04 -0.28524532D-04 -0.22093353D-04
  0.16281468D+00 -0.18260303D-01  0.61594294D-01 -0.83429150D-05  0.48595372D-01
 -0.16430276D-02  0.64459483D-02 -0.86345118D-06  0.35034247D-03 -0.20208491D-03
  0.23904368D-03 -0.54465215D-07  0.18802206D-01 -0.67829527D-02 -0.12019254D-01
  0.14081015D-01  0.86287798D-05  0.12027303D-06 -0.14026284D-03  0.48943084D-04
  0.91319757D-04 -0.45351830D-03 -0.71306100D-07 -0.12996296D-06  0.17270837D-01
  0.32151266D-01  0.52888530D-01  0.71020419D-01  0.66868402D-01  0.54950217D-02
  0.27850679D-01  0.74004468D-01 -0.99763193D-04  0.38724852D-02  0.36236920D-02
  0.28066895D-02  0.54043344D-01  0.50571255D-01  0.39169392D-01  0.46590973D-05
  0.43597672D-05  0.33768082D-05 -0.40048544D-01  0.11482740D-02  0.15010077D-01
  0.12979359D-05 -0.10907051D-01  0.25198563D-03  0.17466824D-02  0.24479869D-06
  0.38515837D-04  0.34140967D-04  0.13868779D-03  0.22505823D-07  0.25152270D-02
  0.19335960D-02 -0.44488230D-02 -0.17203247D-02  0.12976963D-05  0.13136471D-05
 -0.16992623D-03  0.36688585D-04  0.13323764D-03 -0.37655082D-03 -0.40015126D-07
 -0.19524378D-06 -0.66121662D-02 -0.11927404D-01 -0.17584138D-01 -0.10693770D-01
 -0.78442713D-04  0.23922866D-04 -0.20462157D-02 -0.46173644D-02 -0.66123890D-02
 -0.11927806D-01 -0.17584730D-01 -0.10694381D-01 -0.78603751D-04  0.23194113D-04
 -0.20474000D-02  0.46171097D-02 -0.12958212D-01 -0.23832153D-01 -0.39008129D-01
 -0.52568402D-01 -0.52001346D-01 -0.57878982D-02 -0.23405403D-01 -0.62563710D-01
  0.89359615D-04 -0.13305346D-01 -0.13661206D-01 -0.10324370D-01  0.81461664D-01
  0.83640409D-01  0.63210708D-01  0.49170221D-05  0.50485310D-05  0.38153953D-05
  0.34609318D-01 -0.53174668D-02  0.25237851D-01  0.14003246D-05  0.13935192D-01
 -0.88522597D-03  0.32992218D-02  0.11839609D-06  0.40617580D-03 -0.23509854D-03
  0.44568668D-04 -0.20925819D-07  0.31191376D-02 -0.44069218D-02  0.12877842D-02
 -0.94744218D-04  0.43311377D-06 -0.93178714D-06  0.11966959D-02 -0.10223107D-02
 -0.17438529D-03 -0.49038598D-03  0.36588887D-06 -0.21393087D-06  0.26981855D-01
  0.48671417D-01  0.71754497D-01  0.41995511D-01  0.56983092D-03 -0.16519635D-01
 -0.12033845D-01 -0.10367006D-05  0.28028795D-01  0.50559948D-01  0.74538690D-01
  0.44067764D-01  0.10537843D-02  0.20295144D-01 -0.32086107D-02  0.38223703D-05
MO    8     MO 0.0        OCC NO =    2.0000000  ORB. ENERGY =   -0.631795
  0.14957071D-01  0.27508363D-01  0.45025298D-01  0.60677299D-01  0.60022772D-01
  0.66807059D-02  0.27133597D-01  0.72529342D-01 -0.10359351D-03  0.43477304D-01
  0.44640133D-01  0.33736497D-01  0.39468826D-01  0.40524445D-01  0.30626092D-01
 -0.46463939D-05 -0.47706647D-05 -0.36053995D-05 -0.41269258D-01  0.14304202D-01
  0.11639814D-01 -0.14343016D-05 -0.14032493D-01  0.28085832D-02  0.19778981D-02
 -0.19749441D-06  0.57085979D-03 -0.23973053D-03  0.24202970D-03  0.15617400D-07
  0.12244174D-02 -0.32004399D-03 -0.90437342D-03  0.32139228D-02  0.32847271D-06
 -0.48832830D-06  0.60883859D-03 -0.17144730D-04 -0.59169386D-03  0.14127835D-02
  0.17242440D-06 -0.24892703D-06 -0.16687938D-01 -0.31066145D-01 -0.51103517D-01
 -0.68623446D-01 -0.64611561D-01 -0.53095621D-02 -0.27009545D-01 -0.71769418D-01
  0.96750189D-04 -0.98999400D-02 -0.92639047D-02 -0.71752522D-02  0.77964606D-01
  0.72955662D-01  0.56506980D-01 -0.95564071D-05 -0.89424425D-05 -0.69262674D-05
  0.39052389D-01 -0.20374330D-02  0.21744977D-01 -0.25265130D-05  0.11603327D-01
 -0.34392054D-03  0.30283203D-02 -0.39863797D-06 -0.45713736D-03 -0.13678350D-03