 Entering Gaussian System, Link 0=g16
 Input=/Users/ResearchMacPro/Desktop/DNA-SPE_EJ.gjf
 Output=/Users/ResearchMacPro/Desktop/DNA-SPE_EJ.log
 Initial command:
 /Applications/g16/l1.exe "/Users/ResearchMacPro/Scratch/Gau-51237.inp" -scrdir="/Users/ResearchMacPro/Scratch/"
 Entering Link 1 = /Applications/g16/l1.exe PID=     51238.
  
 Copyright (c) 1988-2017, Gaussian, Inc.  All Rights Reserved.
  
 This is part of the Gaussian(R) 16 program.  It is based on
 the Gaussian(R) 09 system (copyright 2009, Gaussian, Inc.),
 the Gaussian(R) 03 system (copyright 2003, Gaussian, Inc.),
 the Gaussian(R) 98 system (copyright 1998, Gaussian, Inc.),
 the Gaussian(R) 94 system (copyright 1995, Gaussian, Inc.),
 the Gaussian 92(TM) system (copyright 1992, Gaussian, Inc.),
 the Gaussian 90(TM) system (copyright 1990, Gaussian, Inc.),
 the Gaussian 88(TM) system (copyright 1988, Gaussian, Inc.),
 the Gaussian 86(TM) system (copyright 1986, Carnegie Mellon
 University), and the Gaussian 82(TM) system (copyright 1983,
 Carnegie Mellon University). Gaussian is a federally registered
 trademark of Gaussian, Inc.
  
 This software contains proprietary and confidential information,
 including trade secrets, belonging to Gaussian, Inc.
  
 This software is provided under written license and may be
 used, copied, transmitted, or stored only in accord with that
 written license.
  
 The following legend is applicable only to US Government
 contracts under FAR:
  
                    RESTRICTED RIGHTS LEGEND
  
 Use, reproduction and disclosure by the US Government is
 subject to restrictions as set forth in subparagraphs (a)
 and (c) of the Commercial Computer Software - Restricted
 Rights clause in FAR 52.227-19.
  
 Gaussian, Inc.
 340 Quinnipiac St., Bldg. 40, Wallingford CT 06492
  
  
 ---------------------------------------------------------------
 Warning -- This program may not be used in any manner that
 competes with the business of Gaussian, Inc. or will provide
 assistance to any competitor of Gaussian, Inc.  The licensee
 of this program is prohibited from giving any competitor of
 Gaussian, Inc. access to this program.  By using this program,
 the user acknowledges that Gaussian, Inc. is engaged in the
 business of creating and licensing software in the field of
 computational chemistry and represents and warrants to the
 licensee that it is not a competitor of Gaussian, Inc. and that
 it will not use this program in any manner prohibited above.
 ---------------------------------------------------------------
  

 Cite this work as:
 Gaussian 16, Revision B.01,
 M. J. Frisch, G. W. Trucks, H. B. Schlegel, G. E. Scuseria, 
 M. A. Robb, J. R. Cheeseman, G. Scalmani, V. Barone, 
 G. A. Petersson, H. Nakatsuji, X. Li, M. Caricato, A. V. Marenich, 
 J. Bloino, B. G. Janesko, R. Gomperts, B. Mennucci, H. P. Hratchian, 
 J. V. Ortiz, A. F. Izmaylov, J. L. Sonnenberg, D. Williams-Young, 
 F. Ding, F. Lipparini, F. Egidi, J. Goings, B. Peng, A. Petrone, 
 T. Henderson, D. Ranasinghe, V. G. Zakrzewski, J. Gao, N. Rega, 
 G. Zheng, W. Liang, M. Hada, M. Ehara, K. Toyota, R. Fukuda, 
 J. Hasegawa, M. Ishida, T. Nakajima, Y. Honda, O. Kitao, H. Nakai, 
 T. Vreven, K. Throssell, J. A. Montgomery, Jr., J. E. Peralta, 
 F. Ogliaro, M. J. Bearpark, J. J. Heyd, E. N. Brothers, K. N. Kudin, 
 V. N. Staroverov, T. A. Keith, R. Kobayashi, J. Normand, 
 K. Raghavachari, A. P. Rendell, J. C. Burant, S. S. Iyengar, 
 J. Tomasi, M. Cossi, J. M. Millam, M. Klene, C. Adamo, R. Cammi, 
 J. W. Ochterski, R. L. Martin, K. Morokuma, O. Farkas, 
 J. B. Foresman, and D. J. Fox, Gaussian, Inc., Wallingford CT, 2016.
 
 ******************************************
 Gaussian 16:  EM64M-G16RevB.01 20-Dec-2017
                 2-Apr-2026 
 ******************************************
 %nprocshared=6
 Will use up to    6 processors via shared memory.
 %nprocs=12
 Will use up to   12 processors via shared memory.
 %mem=24GB
 %chk=DNA-Fragment-SPE.chk
 -----------------------------------------
 # geom=connectivity out=wfn pm6d3 scf=xqc
 -----------------------------------------
 1/38=1,57=2,172=1/1;
 2/12=2,17=6,18=5,40=1/2;
 3/5=2,25=1,41=3900000,124=31/1,2,3;
 4/35=1/1;
 5/5=2,8=3,13=1,35=1,38=5/2,8;
 6/7=2,8=2,9=2,10=2,28=1/1;
 99/5=1,6=100,9=1/99;
 ----------------------------------------------------------------------
 Optimization of a DNA Fragment taken from https://www.rcsb.org/structu
 re/1bna
 ----------------------------------------------------------------------
 Symbolic Z-matrix:
 Charge =  0 Multiplicity = 2
 O                     18.935    34.195    25.617 
 C                     19.13     33.921    24.219 
 C                     19.961    32.668    24.1 
 O                     19.36     31.583    24.852 
 C                     20.172    32.122    22.694 
 O                     21.35     31.325    22.681 
 C                     18.948    31.223    22.647 
 C                     19.231    30.482    23.944 
 N                     18.07     29.661    24.38 
 C                     18.224    28.454    25.015 
 O                     19.36     28.014    25.214 
 N                     17.143    27.761    25.377 
 C                     15.917    28.226    25.12 
 N                     14.828    27.477    25.444 
 C                     15.719    29.442    24.471 
 C                     16.843    30.171    24.101 
 P                     22.409    31.286    21.483 
 O                     23.536    32.157    21.851 
 O                     21.822    31.459    20.139 
 O                     22.84     29.751    21.498 
 C                     23.543    29.175    22.594 
 C                     23.494    27.709    22.279 
 O                     22.193    27.252    22.674 
 C                     23.693    27.325    20.807 
 O                     24.723    26.32     20.653 
 C                     22.273    26.885    20.416 
 C                     21.721    26.304    21.716 
 N                     20.237    26.47     21.78 
 C                     19.526    27.584    21.429 
 N                     18.207    27.455    21.636 
 C                     18.083    26.212    22.142 
 C                     16.904    25.525    22.545 
 O                     15.739    25.916    22.518 
 N                     17.197    24.279    23.037 
 C                     18.434    23.717    23.155 
 N                     18.508    22.456    23.668 
 N                     19.537    24.36     22.77 
 C                     19.29     25.594    22.274 
 P                     25.064    25.621    19.252 
 O                     26.506    25.316    19.22 
 O                     24.559    26.412    18.115 
 O                     24.26     24.246    19.327 
 C                     24.584    23.285    20.335 
 C                     23.523    22.233    20.245 
 O                     22.256    22.844    20.453 
 C                     23.424    21.557    18.903 
 O                     24.121    20.309    18.928 
 C                     21.93     21.406    18.661 
 C                     21.278    21.966    19.909 
 N                     20.196    22.889    19.521 
 C                     18.909    22.584    19.816 
 O                     18.685    21.512    20.382 
 N                     17.935    23.447    19.502 
 C                     18.217    24.603    18.897 
 N                     17.221    25.499    18.629 
 C                     19.526    24.945    18.571 
 C                     20.537    24.048    18.899 
 P                     24.249    19.412    17.617 
 O                     25.42     18.535    17.765 
 O                     24.208    20.296    16.44 
 O                     22.931    18.537    17.67 
 C                     22.714    17.625    18.753 
 C                     21.393    16.96     18.505 
 O                     20.353    17.952    18.496 
 C                     21.264    16.229    17.176 
 O                     20.284    15.214    17.238 
 C                     20.793    17.368    16.288 
 C                     19.716    17.901    17.218 
 N                     19.305    19.281    16.869 
 C                     20.017    20.263    16.232 
 N                     19.313    21.394    16.077 
 C                     18.121    21.1      16.635 
 C                     16.952    21.904    16.749 
 O                     16.769    23.057    16.368 
 N                     15.933    21.214    17.352 
 C                     15.972    19.93     17.816 
 N                     14.831    19.416    18.353 
 N                     17.068    19.179    17.717 
 C                     18.084    19.825    17.121 
 P                     20.356    13.969    16.245 
 O                     21.116    12.891    16.892 
 O                     20.837    14.423    14.91 
 O                     18.81     13.581    16.161 
 C                     18.015    13.569    17.362 
 C                     16.672    14.088    16.957 
 O                     16.842    15.447    16.561 
 C                     16.019    13.393    15.764 
 O                     14.762    12.796    16.12 
 C                     15.952    14.498    14.696 
 C                     15.851    15.732    15.569 
 N                     16.391    16.916    14.867 
 C                     17.658    17.103    14.382 
 N                     17.863    18.346    13.913 
 C                     16.673    18.953    14.098 
 C                     16.23     20.279    13.819 
 N                     17.045    21.222    13.268 
 N                     14.966    20.578    14.118 
 C                     14.178    19.652    14.669 
 N                     14.463    18.392    14.984 
 C                     15.75     18.11     14.661 
 P                     13.866    12.006    15.063 
 O                     13.028    11.039    15.8 
 O                     14.715    11.499    13.968 
 O                     12.879    13.111    14.48 
 C                     11.802    13.597    15.29 
 C                     8.576     26.148    10.664 
 C                     8.655     25.06     11.678 
 O                     10.003    24.615    11.764 
 C                     8.272     25.471    13.087 
 O                     7.199     24.657    13.553 
 C                     9.586     25.307    13.86 
 C                     10.19     24.148    13.089 
 N                     11.66     24.07     13.205 
 C                     12.257    22.88     13.486 
 O                     11.583    21.866    13.691 
 N                     13.62     22.829    13.497 
 C                     14.402    23.914    13.225 
 O                     15.625    23.764    13.252 
 C                     13.774    25.126    12.933 
 C                     14.563    26.358    12.612 
 C                     12.385    25.187    12.926 
 P                     6.594     24.823    15.016 
 O                     5.169     24.424    14.987 
 O                     6.87      26.189    15.511 
 O                     7.409     23.731    15.839 
 C                     7.331     22.352    15.433 
 C                     8.1       21.598    16.461 
 O                     9.478     21.902    16.263 
 C                     7.766     22.045    17.879 
 O                     7.036     21.041    18.611 
 C                     9.123     22.414    18.469 
 C                     10.107    21.743    17.523 
 N                     11.328    22.556    17.331 
 C                     12.534    21.939    17.329 
 O                     12.56     20.731    17.579 
 N                     13.639    22.639    17.035 
 C                     13.56     23.938    16.739 
 N                     14.685    24.628    16.404 
 C                     12.338    24.609    16.736 
 C                     11.193    23.878    17.035 
 P                     6.509     21.324    20.099 
 O                     5.387     20.397    20.396 
 O                     6.235     22.774    20.306 
 O                     7.767     20.924    20.993 
 C                     8.216     19.559    21.073 
 C                     9.422     19.557    21.977 
 O                     10.493    20.26     21.319 
 C                     9.267     20.267    23.325 
 O                     10.088    19.657    24.293 
 C                     9.751     21.67     22.99 
 C                     10.988    21.226    22.256 
 N                     11.599    22.357    21.543 
 C                     11.037    23.545    21.159 
 N                     11.921    24.362    20.566 
 C                     13.072    23.653    20.58 
 C                     14.37     24.003    20.102 
 O                     14.747    25.057    19.585 
 N                     15.268    22.983    20.308 
 C                     15.023    21.776    20.891 
 N                     16.066    20.914    21.038 
 N                     13.815    21.452    21.35 
 C                     12.902    22.429    21.151 
 P                     9.477     18.627    25.34 
 O                     8.767     17.534    24.627 
 O                     8.67      19.409    26.312 
 O                     10.807    18.067    26.034 
 C                     11.688    17.17     25.31 
 C                     13.115    17.573    25.593 
 O                     13.284    18.804    24.893 
 C                     13.441    17.879    27.059 
 O                     14.341    16.938    27.677 
 C                     13.928    19.322    27.025 
 C                     14.312    19.508    25.568 
 N                     14.144    20.932    25.17 
 C                     15.199    21.595    24.63 
 O                     16.257    20.984    24.504 
 N                     15.067    22.877    24.257 
 C                     13.898    23.51     24.404 
 N                     13.771    24.813    24.018 
 C                     12.795    22.866    24.967 
 C                     12.935    21.54     25.359 
 P                     14.658    17.064    29.247 
 O                     14.863    15.717    29.825 
 O                     13.633    17.912    29.92 
 O                     16.033    17.88     29.284 
 C                     17.243    17.32     28.742 
 C                     18.208    18.464    28.758 
 O                     17.716    19.428    27.829 
 C                     18.23     19.236    30.058 
 O                     18.978    18.583    31.084 
 C                     18.885    20.519    29.578 
 C                     18.276    20.693    28.188 
 N                     17.164    21.659    28.139 
 C                     15.874    21.536    28.58 
 N                     15.129    22.614    28.308 
 C                     15.99     23.436    27.673 
 C                     15.765    24.729    27.117 
 O                     14.719    25.373    27.067 
 N                     16.926    25.257    26.604 
 C                     18.157    24.666    26.579 
 N                     19.208    25.386    26.096 
 N                     18.35     23.438    27.053 
 C                     17.231    22.893    27.57 
 H                     16.74342   31.11464   23.6065 
 H                     14.73343   29.80345   24.26386 
 H                     14.94671   26.58156   25.87306 
 H                     13.90905   27.82205   25.25303 
 H                     20.06365   29.81364   23.874 
 H                     19.03463   30.54563   21.82325 
 H                     18.0651   31.81664   22.76094 
 H                     20.27597   32.83377   21.90186 
 H                     20.91176   32.9851   24.47471 
 H                     19.71342   34.72417   23.8197 
 H                     18.16832   33.70087   23.80474 
 H                     18.57171   35.07732   25.72253 
 H                     19.9761   28.46882   21.02974 
 H                     16.4225   23.72434   23.34113 
 H                     17.6735   21.97782   23.94179 
 H                     19.39677   22.00926   23.77049 
 H                     21.98891   25.27535   21.83848 
 H                     22.35502   26.08997   19.7046 
 H                     21.7073   27.76106   20.17641 
 H                     24.05716   28.10312   20.16918 
 H                     24.31321   27.25984   22.80058 
 H                     22.97337   29.34534   23.48361 
 H                     24.5629   29.49445   22.54241 
 H                     21.55872   24.26531   18.66714 
 H                     19.74807   25.87069   18.08245 
 H                     16.27759   25.28964   18.88619 
 H                     17.43541   26.36416   18.17566 
 H                     20.93173   21.17777   20.54436 
 H                     21.71009   20.35968   18.61912 
 H                     21.66608   22.04137   17.84152 
 H                     23.87856   22.11151   18.10878 
 H                     23.78862   21.50069   20.97853 
 H                     24.48238   23.7663   21.28522 
 H                     25.5136   22.8309   20.06198 
 H                     21.02512   20.1409   15.89482 
 H                     15.06804   21.7031   17.46435 
 H                     14.00314   19.97519   18.39718 
 H                     14.82099   18.47936   18.70315 
 H                     18.84135   17.28643   17.17131 
 H                     20.33416   16.96517   15.40931 
 H                     21.57435   18.09356   16.19884 
 H                     22.15563   15.73307   16.85358 
 H                     21.31299   16.2396   19.29209 
 H                     22.61495   18.20751   19.64506 
 H                     23.46836   16.86888   18.68879 
 H                     18.40707   16.33895   14.3769 
 H                     13.17907   19.96724   14.88732 
 H                     17.99265   20.99458   13.04388 
 H                     16.6954   22.14141   13.08779 
 H                     14.84757   15.92205   15.88823 
 H                     15.03758   14.39027   14.1509 
 H                     16.88582   14.52497   14.17433 
 H                     16.56468   12.55105   15.39218 
 H                     16.03844   13.92556   17.80383 
 H                     18.44391   14.27563   18.04142 
 H                     17.89182   12.54837   17.65871 
 H                     12.19688   14.03714   16.18177 
 H                     11.15586   12.78446   15.5492 
 H                     11.88854   26.10807   12.70225 
 H                     14.06504   21.96005   13.71347 
 H                     14.34563   27.11857   13.33255 
 H                     15.60795   26.12941   12.63888 
 H                     14.29907   26.70615   11.63525 
 H                     9.77208   23.21392   13.40162 
 H                     9.36323   24.9814   14.85461 
 H                     10.18913   26.177    13.70435 
 H                     7.89742   26.46802   13.1897 
 H                     7.96141   24.31647   11.34484 
 H                     8.93992   25.78723   9.72468 
 H                     7.5587    26.46149   10.55576 
 H                     10.22951   24.34338   17.03243 
 H                     12.28262   25.65356   16.51076 
 H                     15.56916   24.16143   16.37995 
 H                     14.62708   25.60133   16.18202 
 H                     10.34333   20.76107   17.87635 
 H                     9.20838   21.94321   19.42606 
 H                     9.2468    23.47315   18.38083 
 H                     7.09534   22.87778   17.91876 
 H                     7.86291   20.55976   16.35737 
 H                     7.8519    22.2571   14.50318 
 H                     6.30735   22.04919   15.5061 
 H                     10.00806   23.79406   21.31438 
 H                     16.20415   23.14446   19.99565 
 H                     16.97832   21.17453   20.72209 
 H                     15.91999   20.02014   21.46191 
 H                     11.74067   20.83461   22.90808 
 H                     10.0296   22.1785   23.88928 
 H                     9.07146   22.13042   22.30361 
 H                     8.27797   20.24199   23.73256 
 H                     9.59386   18.51854   22.16924 
 H                     8.54746   19.27336   20.09656 
 H                     7.44796   18.99762   21.56276 
 H                     12.11654   21.00853   25.79782 
 H                     11.86522   23.38019   25.09358 
 H                     14.55293   25.29635   23.62436 
 H                     12.89602   25.2843   24.12884 
 H                     15.31642   19.19726   25.36929 
 H                     14.81719   19.38893   27.61641 
 H                     13.09594   19.96087   27.23577 
 H                     12.59038   17.76883   27.69869 
 H                     13.74498   16.75656   25.3076 
 H                     11.51652   17.33705   24.26712 
 H                     11.55034   16.19346   25.72512 
 H                     15.50131   20.67095   29.08763 
 H                     16.86234   26.17232   26.20634 
 H                     19.06644   26.32136   25.77187 
 H                     20.12097   24.97909   26.06562 
 H                     19.04997   21.04866   27.54041 
 H                     19.93366   20.33883   29.46505 
 H                     18.5438   21.32225   30.19709 
 H                     17.27424   19.36089   30.52257 
 H                     19.10185   19.18452   31.82186 
 H                     19.17339   18.04614   28.56226 
 H                     17.05725   17.05966   27.72091 
 H                     17.5989   16.5789   29.42684 
 H                     11.24883   14.33241   14.74404 
 H                     9.17263   26.97693   10.98307 
 
 Stoichiometry    C97H117N39O58P9(2)
 Framework group  C1[X(C97H117N39O58P9)]
 Deg. of freedom   954
 Full point group                 C1      NOp   1
 Largest Abelian subgroup         C1      NOp   1
 Largest concise Abelian subgroup C1      NOp   1
                         Standard orientation:                         
 ---------------------------------------------------------------------
 Center     Atomic      Atomic             Coordinates (Angstroms)
 Number     Number       Type             X           Y           Z
 ---------------------------------------------------------------------
      1          8           0      -11.359442   -4.567284   -5.826353
      2          6           0      -10.610714   -3.474119   -6.384833
      3          6           0      -10.404571   -2.446671   -5.300127
      4          8           0       -9.805472   -3.054871   -4.127479
      5          6           0       -9.512730   -1.261467   -5.645647
      6          8           0       -9.839316   -0.173770   -4.789308
      7          6           0       -8.193111   -1.875207   -5.209169
      8          6           0       -8.644698   -2.275465   -3.813733
      9          7           0       -7.659954   -3.167232   -3.145087
     10          6           0       -7.427356   -3.118019   -1.793323
     11          8           0       -8.032651   -2.292560   -1.103443
     12          7           0       -6.526886   -3.940614   -1.252635
     13          6           0       -5.846292   -4.802301   -2.013974
     14          7           0       -4.890088   -5.591425   -1.452854
     15          6           0       -6.047760   -4.877319   -3.389781
     16          6           0       -6.992005   -4.028346   -3.954901
     17         15           0       -9.889170    1.358918   -5.243828
     18          8           0      -11.296570    1.708772   -5.490852
     19          8           0       -8.902106    1.724372   -6.279676
     20          8           0       -9.335806    2.089036   -3.938866
     21          6           0      -10.048643    2.075046   -2.706442
     22          6           0       -9.047606    2.642708   -1.743910
     23          8           0       -8.149898    1.573691   -1.414063
     24          6           0       -8.202642    3.815590   -2.257938
     25          8           0       -8.244855    4.941295   -1.349286
     26          6           0       -6.828270    3.147123   -2.422658
     27          6           0       -6.822669    2.091965   -1.318631
     28          7           0       -5.975569    0.924118   -1.709096
     29          6           0       -5.939879    0.316864   -2.933713
     30          7           0       -5.112976   -0.738476   -2.975419
     31          6           0       -4.611624   -0.801192   -1.725949
     32          6           0       -3.671580   -1.722553   -1.185737
     33          8           0       -3.109684   -2.663240   -1.742707
     34          7           0       -3.434309   -1.471694    0.141366
     35          6           0       -3.996643   -0.488102    0.900487
     36          7           0       -3.618661   -0.405876    2.207826
     37          7           0       -4.872105    0.378782    0.390231
     38          6           0       -5.130822    0.167284   -0.920538
     39         15           0       -7.356660    6.260528   -1.545285
     40          8           0       -8.116513    7.416242   -1.035028
     41          8           0       -6.870278    6.384946   -2.931441
     42          8           0       -6.113835    6.008479   -0.578577
     43          6           0       -6.321346    5.879971    0.830318
     44          6           0       -5.002055    5.454363    1.394989
     45          8           0       -4.616263    4.231261    0.780935
     46          6           0       -3.869075    6.409545    1.127176
     47          8           0       -3.652720    7.247787    2.264928
     48          6           0       -2.682393    5.513789    0.806540
     49          6           0       -3.211182    4.102133    0.960871
     50          7           0       -2.808465    3.300515   -0.208926
     51          6           0       -1.951509    2.262183   -0.054286
     52          8           0       -1.509789    2.041632    1.075296
     53          7           0       -1.624954    1.509598   -1.112122
     54          6           0       -2.130544    1.773567   -2.319013
     55          7           0       -1.831600    0.967006   -3.380496
     56          6           0       -3.006135    2.837088   -2.516457
     57          6           0       -3.345502    3.617303   -1.416271
     58         15           0       -2.563030    8.410276    2.234772
     59          8           0       -2.924674    9.414257    3.246458
     60          8           0       -2.410740    8.872205    0.844846
     61          8           0       -1.246978    7.658766    2.691717
     62          6           0       -1.166174    7.075362    3.997409
     63          6           0        0.192752    6.451893    4.113067
     64          8           0        0.333284    5.424533    3.117815
     65          6           0        1.368838    7.392309    3.890173
     66          8           0        2.535854    6.920349    4.530327
     67          6           0        1.512490    7.289222    2.381384
     68          6           0        1.441877    5.774292    2.286945
     69          7           0        1.133991    5.310773    0.913818
     70          6           0        0.459102    5.956441   -0.088516
     71          7           0        0.379105    5.226891   -1.211084
     72          6           0        1.031272    4.090135   -0.893076
     73          6           0        1.295680    2.943836   -1.694363
     74          8           0        0.979855    2.729450   -2.861562
     75          7           0        2.028783    2.014749   -1.003403
     76          6           0        2.467755    2.108506    0.286553
     77          7           0        3.218303    1.083031    0.775966
     78          7           0        2.214233    3.177515    1.040186
     79          6           0        1.503632    4.112226    0.387384
     80         15           0        3.688285    7.939384    4.948333
     81          8           0        3.447051    8.387097    6.326611
     82          8           0        3.817111    8.999883    3.909849
     83          8           0        4.957180    6.972487    4.896056
     84          6           0        4.860663    5.644501    5.445334
     85          6           0        5.665029    4.775205    4.531904
     86          8           0        5.012721    4.770455    3.264202
     87          6           0        7.093772    5.238535    4.254950
     88          8           0        8.059838    4.264796    4.681265
     89          6           0        7.085074    5.552046    2.749037
     90          6           0        6.019977    4.590034    2.264075
     91          7           0        5.380463    5.095037    1.030279
     92          6           0        4.700078    6.270418    0.854098
     93          7           0        4.126488    6.369019   -0.357639
     94          6           0        4.476010    5.217554   -0.966520
     95          6           0        4.182395    4.701852   -2.262749
     96          7           0        3.416849    5.379578   -3.163694
     97          7           0        4.690385    3.510425   -2.577306
     98          6           0        5.428915    2.847671   -1.684360
     99          7           0        5.771015    3.207373   -0.450816
    100          6           0        5.251090    4.425879   -0.159025
    101         15           0        9.629244    4.492179    4.509727
    102          8           0       10.326460    3.687908    5.533221
    103          8           0        9.920506    5.936984    4.442052
    104          8           0        9.971025    3.831447    3.101998
    105          6           0        9.988539    2.404655    2.974782
    106          6           0        7.606962   -0.528960  -10.256112
    107          6           0        7.626501   -0.804632   -8.792621
    108          8           0        6.943835    0.247487   -8.122146
    109          6           0        6.919873   -2.079690   -8.373342
    110          8           0        7.827585   -2.928027   -7.675155
    111          6           0        5.748389   -1.560253   -7.531421
    112          6           0        6.390024   -0.316199   -6.945611
    113          7           0        5.410285    0.704386   -6.522575
    114          6           0        5.527325    1.293413   -5.301585
    115          8           0        6.419216    0.954728   -4.517799
    116          7           0        4.657319    2.294243   -4.982335
    117          6           0        3.690505    2.733923   -5.839472
    118          8           0        2.958235    3.650114   -5.460876
    119          6           0        3.587384    2.123088   -7.090406
    120          6           0        2.560668    2.557812   -8.090533
    121          6           0        4.466841    1.098030   -7.420413
    122         15           0        7.372856   -4.330832   -7.075732
    123          8           0        8.540023   -5.240904   -7.063129
    124          8           0        6.184691   -4.817984   -7.809288
    125          8           0        7.011926   -3.949316   -5.573004
    126          6           0        8.031399   -3.369937   -4.737806
    127          6           0        7.408452   -3.243930   -3.391433
    128          8           0        6.442108   -2.199703   -3.470638
    129          6           0        6.645294   -4.498877   -2.985493
    130          8           0        7.294729   -5.211038   -1.914139
    131          6           0        5.247850   -3.981228   -2.661612
    132          6           0        5.463470   -2.485839   -2.486303
    133          7           0        4.317153   -1.700852   -2.994660
    134          6           0        3.867635   -0.649504   -2.268210
    135          8           0        4.384475   -0.452325   -1.165288
    136          7           0        2.912301    0.146082   -2.770047
    137          6           0        2.404047   -0.086152   -3.982071
    138          7           0        1.462401    0.752448   -4.495882
    139          6           0        2.836968   -1.160997   -4.757199
    140          6           0        3.832925   -1.980281   -4.236017
    141         15           0        6.711678   -6.605052   -1.376795
    142          8           0        7.801296   -7.352010   -0.697672
    143          8           0        5.986964   -7.336134   -2.454169
    144          8           0        5.643687   -6.136787   -0.289631
    145          6           0        6.058123   -5.481339    0.922745
    146          6           0        4.800325   -5.167519    1.691588
    147          8           0        4.054594   -4.169699    0.968778
    148          6           0        3.811837   -6.321036    1.885282
    149          8           0        3.106887   -6.159465    3.093630
    150          6           0        2.898117   -6.147265    0.681201
    151          6           0        2.713322   -4.663049    0.851538
    152          7           0        2.062155   -4.084718   -0.332677
    153          6           0        1.976779   -4.583203   -1.605025
    154          7           0        1.257091   -3.793976   -2.417283
    155          6           0        0.885817   -2.767244   -1.620002
    156          6           0        0.091952   -1.618812   -1.914399
    157          8           0       -0.465484   -1.312413   -2.970675
    158          7           0       -0.042519   -0.810522   -0.810848
    159          6           0        0.478290   -1.019617    0.430844
    160          7           0        0.192722   -0.112473    1.404519
    161          7           0        1.208815   -2.097753    0.711693
    162          6           0        1.373096   -2.909445   -0.356889
    163         15           0        3.529149   -6.974852    4.392579
    164          8           0        4.964645   -6.743257    4.697266
    165          8           0        3.123171   -8.388245    4.180305
    166          8           0        2.605767   -6.284576    5.503893
    167          6           0        2.897715   -4.940614    5.965930
    168          6           0        1.595162   -4.189188    6.098374
    169          8           0        1.171670   -3.968907    4.754479
    170          6           0        0.452465   -4.953993    6.775414
    171          8           0        0.059369   -4.424031    8.056828
    172          6           0       -0.641476   -4.977533    5.715550
    173          6           0       -0.238567   -3.837118    4.797934
    174          7           0       -0.704269   -4.105018    3.410218
    175          6           0       -1.478817   -3.181642    2.784402
    176          8           0       -1.770358   -2.162224    3.404363
    177          7           0       -1.903055   -3.399602    1.530371
    178          6           0       -1.561835   -4.519176    0.883083
    179          7           0       -1.994133   -4.731172   -0.394066
    180          6           0       -0.778243   -5.497204    1.497704
    181          6           0       -0.344935   -5.273114    2.799075
    182         15           0       -1.032544   -5.210623    8.934476
    183          8           0       -0.726825   -5.049760   10.373634
    184          8           0       -1.176820   -6.614055    8.452583
    185          8           0       -2.400227   -4.457551    8.587811
    186          6           0       -2.603305   -3.081060    8.955910
    187          6           0       -3.871871   -2.704604    8.256454
    188          8           0       -3.597041   -2.748845    6.857557
    189          6           0       -4.985376   -3.716227    8.408750
    190          8           0       -5.649025   -3.632261    9.670141
    191          6           0       -5.869832   -3.293787    7.249096
    192          6           0       -4.845031   -2.915853    6.181292
    193          7           0       -4.622309   -3.963456    5.168857
    194          6           0       -3.939183   -5.145794    5.264384
    195          7           0       -3.902473   -5.817309    4.107313
    196          6           0       -4.588044   -5.019943    3.262074
    197          6           0       -4.862425   -5.194193    1.874283
    198          8           0       -4.505489   -6.103838    1.128297
    199          7           0       -5.646219   -4.173041    1.391800
    200          6           0       -6.114446   -3.096276    2.089372
    201          7           0       -6.947286   -2.227289    1.450991
    202          7           0       -5.812251   -2.912034    3.371808
    203          6           0       -5.048690   -3.900362    3.878421
    204          1           0       -7.188490   -4.052866   -5.006420
    205          1           0       -5.493566   -5.566258   -3.992386
    206          1           0       -4.698632   -5.525352   -0.473579
    207          1           0       -4.378890   -6.237375   -2.019797
    208          1           0       -8.786273   -1.439485   -3.161050
    209          1           0       -7.449982   -1.108733   -5.137213
    210          1           0       -8.000399   -2.754623   -5.787434
    211          1           0       -9.560550   -0.887046   -6.646857
    212          1           0      -11.395766   -2.076012   -5.141871
    213          1           0      -11.226591   -3.021420   -7.133606
    214          1           0       -9.645105   -3.854847   -6.644727
    215          1           0      -11.661134   -5.142643   -6.533138
    216          1           0       -6.513356    0.649729   -3.773490
    217          1           0       -2.780445   -2.072968    0.600638
    218          1           0       -2.951790   -1.053086    2.577153
    219          1           0       -4.008291    0.301645    2.797405
    220          1           0       -6.496524    2.495617   -0.382899
    221          1           0       -6.075812    3.872513   -2.193495
    222          1           0       -6.814825    2.641975   -3.365815
    223          1           0       -8.537373    4.264705   -3.169613
    224          1           0       -9.607964    3.037851   -0.922472
    225          1           0      -10.231198    1.055741   -2.437012
    226          1           0      -10.865052    2.762301   -2.784262
    227          1           0       -4.013395    4.447031   -1.518106
    228          1           0       -3.406423    3.048296   -3.486024
    229          1           0       -1.232495    0.176307   -3.254524
    230          1           0       -2.211900    1.167360   -4.283397
    231          1           0       -2.881330    3.670408    1.882669
    232          1           0       -1.941845    5.669613    1.562983
    233          1           0       -2.433200    5.658309   -0.223954
    234          1           0       -4.058936    7.084418    0.318845
    235          1           0       -5.154481    5.391740    2.452223
    236          1           0       -7.012605    5.077728    0.983513
    237          1           0       -6.538697    6.854342    1.215362
    238          1           0        0.041264    6.936221    0.013191
    239          1           0        2.268009    1.178373   -1.496603
    240          1           0        3.430123    0.296948    0.195272
    241          1           0        3.557635    1.116075    1.716052
    242          1           0        2.376367    5.336208    2.569278
    243          1           0        2.490413    7.616382    2.095846
    244          1           0        0.648639    7.713574    1.913851
    245          1           0        1.224979    8.381513    4.271852
    246          1           0        0.232246    6.100490    5.122946
    247          1           0       -1.884523    6.283358    4.037490
    248          1           0       -1.211280    7.874968    4.706983
    249          1           0        4.632097    7.031359    1.603262
    250          1           0        5.796337    1.895473   -2.005639
    251          1           0        3.037758    6.273695   -2.925272
    252          1           0        3.234173    4.982786   -4.063241
    253          1           0        6.406733    3.606078    2.099302
    254          1           0        8.025922    5.256523    2.333861
    255          1           0        6.729768    6.551850    2.611017
    256          1           0        7.392149    6.102353    4.811447
    257          1           0        5.729364    3.828286    5.025975
    258          1           0        3.838893    5.336073    5.369449
    259          1           0        5.347975    5.651777    6.397896
    260          1           0        9.025200    2.012347    3.225726
    261          1           0       10.723369    1.996534    3.636871
    262          1           0        4.402006    0.620975   -8.375983
    263          1           0        4.730968    2.723929   -4.082365
    264          1           0        1.911013    1.737578   -8.314282
    265          1           0        1.988199    3.366060   -7.685670
    266          1           0        3.049322    2.880359   -8.986123
    267          1           0        7.014483   -0.557718   -6.110973
    268          1           0        5.556698   -2.255018   -6.740563
    269          1           0        4.956384   -1.264215   -8.187156
    270          1           0        6.564022   -2.693293   -9.174443
    271          1           0        8.662041   -0.895677   -8.539109
    272          1           0        8.054621    0.424262  -10.445504
    273          1           0        8.156932   -1.289649  -10.769713
    274          1           0        4.209352   -2.809978   -4.797093
    275          1           0        2.416300   -1.349801   -5.722751
    276          1           0        1.152388    1.541304   -3.965224
    277          1           0        1.080839    0.579486   -5.403899
    278          1           0        5.664749   -2.262668   -1.459375
    279          1           0        4.953687   -4.387625   -1.716514
    280          1           0        4.630691   -4.129264   -3.523064
    281          1           0        6.606189   -5.243409   -3.752984
    282          1           0        8.187878   -3.064215   -2.680731
    283          1           0        8.225290   -2.381893   -5.099848
    284          1           0        8.829960   -4.078001   -4.661337
    285          1           0        2.432891   -5.499542   -1.916770
    286          1           0       -0.581917    0.022678   -0.932618
    287          1           0       -0.383655    0.678137    1.197820
    288          1           0        0.559287   -0.236589    2.326596
    289          1           0        2.097031   -4.414112    1.690058
    290          1           0        1.969443   -6.647986    0.859363
    291          1           0        3.446420   -6.340554   -0.217077
    292          1           0        4.261453   -7.290191    1.944309
    293          1           0        5.158521   -4.874830    2.656434
    294          1           0        6.505031   -4.549348    0.646039
    295          1           0        6.615060   -6.192241    1.496625
    296          1           0        0.255034   -5.997171    3.309643
    297          1           0       -0.517759   -6.396689    0.980042
    298          1           0       -2.567204   -4.048690   -0.847727
    299          1           0       -1.737789   -5.568975   -0.876118
    300          1           0       -0.622238   -2.894443    5.128175
    301          1           0       -1.567434   -4.718083    6.184792
    302          1           0       -0.557175   -5.893035    5.168147
    303          1           0        0.737733   -5.943966    7.064337
    304          1           0        1.779459   -3.325080    6.701907
    305          1           0        3.459669   -4.459102    5.193108
    306          1           0        3.308802   -5.030236    6.949737
    307          1           0       -3.483515   -5.495539    6.167127
    308          1           0       -5.900945   -4.224145    0.426138
    309          1           0       -7.200198   -2.386768    0.496737
    310          1           0       -7.305651   -1.430002    1.936695
    311          1           0       -5.210888   -2.044830    5.678930
    312          1           0       -6.398723   -2.408724    7.535168
    313          1           0       -6.409197   -4.152604    6.907894
    314          1           0       -4.669494   -4.738354    8.389446
    315          1           0       -6.443678   -4.170523    9.650099
    316          1           0       -4.172682   -1.762558    8.665063
    317          1           0       -1.808514   -2.505164    8.529824
    318          1           0       -2.784726   -3.044961   10.009800
    319          1           0       10.230129    2.139393    1.966729
    320          1           0        6.595294   -0.523442  -10.604536
 ---------------------------------------------------------------------
 Rotational constants (GHZ):           0.0043097           0.0034818           0.0033193
 Standard basis: VSTO-6G (5D, 7F)
 There are   983 symmetry adapted cartesian basis functions of A   symmetry.
 There are   974 symmetry adapted basis functions of A   symmetry.
   974 basis functions,  5898 primitive gaussians,   983 cartesian basis functions
   547 alpha electrons      546 beta electrons
       nuclear repulsion energy     38132.2174375975 Hartrees.
 Integral buffers will be    131072 words long.
 Regular integral format.
 Two-electron integral symmetry is turned off.
 Nuclear repulsion after empirical dispersion term =    38131.9689746401 Hartrees.
 Do NDO integrals.
 One-electron integrals computed using PRISM.
 NBasis=   974 RedAO= F EigKep=  0.00D+00  NBF=   974
 NBsUse=   974 1.00D-04 EigRej=  0.00D+00 NBFU=   974
 Nonelectrostatic core Hamiltonian diagonalized for initial guess.
 Initial guess <Sx>= 0.0000 <Sy>= 0.0000 <Sz>= 0.5000 <S**2>= 0.7500 S= 0.5000
 Keep J ints in memory in canonical form, NReq=4888791.
 Overlap will be assumed to be unity.
 Requested convergence on RMS density matrix=1.00D-08 within  32 cycles.
 Requested convergence on MAX density matrix=1.00D-06.
 Requested convergence on             energy=1.00D-06.
 No special actions if energy rises.
 EnCoef did     6 forward-backward iterations
 EnCoef did   100 forward-backward iterations
 EnCoef did   100 forward-backward iterations
 EnCoef did     5 forward-backward iterations
 EnCoef did    11 forward-backward iterations
 EnCoef did    14 forward-backward iterations
 EnCoef did     9 forward-backward iterations
 EnCoef did   100 forward-backward iterations
 EnCoef did   100 forward-backward iterations
 EnCoef did   100 forward-backward iterations
 EnCoef did   100 forward-backward iterations
 EnCoef did     3 forward-backward iterations
 EnCoef did     3 forward-backward iterations
 EnCoef did     2 forward-backward iterations
 EnCoef did     2 forward-backward iterations
 EnCoef did     4 forward-backward iterations
 EnCoef did     3 forward-backward iterations
 EnCoef did     2 forward-backward iterations
 EnCoef did     3 forward-backward iterations
 EnCoef did     4 forward-backward iterations
 EnCoef did     4 forward-backward iterations
 EnCoef did     4 forward-backward iterations
 EnCoef did     4 forward-backward iterations
 EnCoef did     4 forward-backward iterations
 EnCoef did     4 forward-backward iterations
 EnCoef did   100 forward-backward iterations
 EnCoef did   100 forward-backward iterations
 Rare condition: small coef for last iteration: -0.894D-15
 EnCoef did   100 forward-backward iterations
 EnCoef did   100 forward-backward iterations
 >>>>>>>>>> Convergence criterion not met.
 SCF Done:  E(UPM6D3) =  -1.95011448173     A.U. after   33 cycles
            NFock= 32  Conv=0.21D-02     -V/T= 0.9992
 <Sx>= 0.0000 <Sy>= 0.0000 <Sz>= 0.5000 <S**2>= 2.3763 S= 1.1206
 <L.S>= 0.000000000000E+00
 Annihilation of the first spin contaminant:
 S**2 before annihilation     1.9993,   after     1.7243
 Keep J ints in memory in canonical form, NReq=4889191.
 Gradient too large for Newton-Raphson -- use scaled steepest descent instead.
 Alpha Gap=    -0.209 HL deriv= 2.69D-04 Rot set to   9.02D-01
  Beta Gap=    -0.192 HL deriv= 1.95D-04 Rot set to   6.27D-01
     Accept linear search using points  5 and  6.
 Gradient too large for Newton-Raphson -- use scaled steepest descent instead.
     Accept linear search using points  3 and  4.
 Gradient too large for Newton-Raphson -- use scaled steepest descent instead.
     Minimum is close to point  2 DX=  2.62D-02 DF= -5.61D-05 DXR=  2.55D-02 DFR=  6.51D-04 which will be used.
 Gradient too large for Newton-Raphson -- use scaled steepest descent instead.
     Accept linear search using points  1 and  2.
 Gradient too large for Newton-Raphson -- use scaled steepest descent instead.
 Gradient too large for Newton-Raphson -- use scaled steepest descent instead.
     Accept linear search using points  2 and  3.
 Gradient too large for Newton-Raphson -- use scaled steepest descent instead.
     Minimum is close to point  3 DX=  1.30D-01 DF= -2.86D-04 DXR=  7.11D-02 DFR=  6.01D-03 which will be used.
 Gradient too large for Newton-Raphson -- use scaled steepest descent instead.
     Accept linear search using points  1 and  2.
     Minimum is close to point  2 DX= -9.27D-02 DF= -7.23D-04 DXR=  6.59D-02 DFR=  9.55D-03 which will be used.
 Gradient too large for Newton-Raphson -- use scaled steepest descent instead.
     Accept linear search using points  1 and  2.
 Gradient too large for Newton-Raphson -- use scaled steepest descent instead.
 Gradient too large for Newton-Raphson -- use scaled steepest descent instead.
     Minimum is close to point  2 DX=  9.88D-03 DF= -5.35D-07 DXR=  8.17D-03 DFR=  6.67D-05 which will be used.
 Gradient too large for Newton-Raphson -- use scaled steepest descent instead.
     Minimum is close to point  2 DX=  7.72D-02 DF= -1.55D-05 DXR=  5.60D-02 DFR=  3.15D-03 which will be used.
 Gradient too large for Newton-Raphson -- use scaled steepest descent instead.
     Minimum is close to point  2 DX=  8.46D-02 DF= -1.17D-05 DXR=  6.11D-02 DFR=  3.75D-03 which will be used.
 Gradient too large for Newton-Raphson -- use scaled steepest descent instead.
     Minimum is close to point  2 DX=  1.09D-01 DF= -1.19D-05 DXR=  7.22D-02 DFR=  5.24D-03 which will be used.
 Gradient too large for Newton-Raphson -- use scaled steepest descent instead.
 Gradient too large for Newton-Raphson -- use scaled steepest descent instead.
     Minimum is close to point  2 DX=  3.49D-02 DF= -1.40D-06 DXR=  2.14D-02 DFR=  4.56D-04 which will be used.
 Gradient too large for Newton-Raphson -- use scaled steepest descent instead.
     Accept linear search using points  2 and  3.
     Minimum is close to point  3 DX= -2.20D-01 DF= -6.53D-05 DXR=  9.23D-02 DFR=  8.69D-03 which will be used.
 Gradient too large for Newton-Raphson -- use scaled steepest descent instead.
 Gradient too large for Newton-Raphson -- use scaled steepest descent instead.
     Accept linear search using points  1 and  2.
 Gradient too large for Newton-Raphson -- use scaled steepest descent instead.
     Accept linear search using points  1 and  2.
 Gradient too large for Newton-Raphson -- use scaled steepest descent instead.
 Gradient too large for Newton-Raphson -- use scaled steepest descent instead.
     Accept linear search using points  1 and  2.
     Minimum is close to point  2 DX= -4.44D-02 DF= -2.19D-06 DXR=  3.84D-02 DFR=  1.99D-03 which will be used.
 Gradient too large for Newton-Raphson -- use scaled steepest descent instead.
     Minimum is close to point  2 DX=  1.40D-01 DF= -6.32D-06 DXR=  9.10D-02 DFR=  8.36D-03 which will be used.
 Gradient too large for Newton-Raphson -- use scaled steepest descent instead.
 Gradient too large for Newton-Raphson -- use scaled steepest descent instead.
     Accept linear search using points  1 and  2.
     Minimum is close to point  2 DX= -1.23D-01 DF= -7.67D-06 DXR=  8.35D-02 DFR=  1.28D-02 which will be used.
 Gradient too large for Newton-Raphson -- use scaled steepest descent instead.
     Accept linear search using points  1 and  2.
 Gradient too large for Newton-Raphson -- use scaled steepest descent instead.
     Accept linear search using points  1 and  2.
     Minimum is close to point  2 DX= -1.70D-02 DF= -1.55D-07 DXR=  1.23D-02 DFR=  2.60D-04 which will be used.
 Gradient too large for Newton-Raphson -- use scaled steepest descent instead.
     Minimum is close to point  2 DX=  1.25D-01 DF= -3.95D-06 DXR=  8.22D-02 DFR=  6.81D-03 which will be used.
 Gradient too large for Newton-Raphson -- use scaled steepest descent instead.
 Gradient too large for Newton-Raphson -- use scaled steepest descent instead.
     Accept linear search using points  1 and  2.
     Minimum is close to point  2 DX= -1.41D-01 DF= -9.12D-06 DXR=  9.67D-02 DFR=  1.69D-02 which will be used.
 Gradient too large for Newton-Raphson -- use scaled steepest descent instead.
     Accept linear search using points  1 and  2.
 Gradient too large for Newton-Raphson -- use scaled steepest descent instead.
     Accept linear search using points  1 and  2.
     Minimum is close to point  2 DX= -1.73D-02 DF= -1.46D-07 DXR=  1.25D-02 DFR=  2.72D-04 which will be used.
 Gradient too large for Newton-Raphson -- use scaled steepest descent instead.
     Minimum is close to point  2 DX=  9.99D-02 DF= -2.28D-06 DXR=  6.66D-02 DFR=  4.45D-03 which will be used.
 Gradient too large for Newton-Raphson -- use scaled steepest descent instead.
 Gradient too large for Newton-Raphson -- use scaled steepest descent instead.
     Accept linear search using points  1 and  2.
     Minimum is close to point  2 DX= -1.30D-01 DF= -6.53D-06 DXR=  8.88D-02 DFR=  1.43D-02 which will be used.
 Gradient too large for Newton-Raphson -- use scaled steepest descent instead.
     Accept linear search using points  1 and  2.
 Gradient too large for Newton-Raphson -- use scaled steepest descent instead.
     Accept linear search using points  1 and  2.
     Minimum is close to point  2 DX= -2.82D-02 DF= -3.09D-07 DXR=  2.06D-02 DFR=  7.25D-04 which will be used.
 LinEq1:  Iter=  0 NonCon=     1 RMS=3.79D-05 Max=1.37D-02 NDo=     1
 AX will form     1 AO Fock derivatives at one time.
 LinEq1:  Iter=  1 NonCon=     1 RMS=1.56D-05 Max=3.54D-03 NDo=     1
 LinEq1:  Iter=  2 NonCon=     1 RMS=1.78D-06 Max=1.73D-04 NDo=     1
 LinEq1:  Iter=  3 NonCon=     1 RMS=5.14D-07 Max=1.19D-04 NDo=     1
 LinEq1:  Iter=  4 NonCon=     1 RMS=1.55D-07 Max=5.10D-05 NDo=     1
 LinEq1:  Iter=  5 NonCon=     1 RMS=4.99D-08 Max=8.81D-06 NDo=     1
 LinEq1:  Iter=  6 NonCon=     1 RMS=1.51D-08 Max=2.05D-06 NDo=     1
 LinEq1:  Iter=  7 NonCon=     0 RMS=4.43D-09 Max=6.08D-07 NDo=     1
 Linear equations converged to 6.836D-08 6.836D-07 after     7 iterations.
     Minimum is close to point  3 DX= -3.37D-02 DF= -3.21D-05 DXR=  9.21D-02 DFR=  8.56D-03 which will be used.
 LinEq1:  Iter=  0 NonCon=     1 RMS=2.23D-05 Max=4.36D-03 NDo=     1
 LinEq1:  Iter=  1 NonCon=     1 RMS=6.93D-06 Max=1.41D-03 NDo=     1
 LinEq1:  Iter=  2 NonCon=     1 RMS=2.37D-06 Max=4.80D-04 NDo=     1
 LinEq1:  Iter=  3 NonCon=     1 RMS=7.42D-07 Max=9.30D-05 NDo=     1
 LinEq1:  Iter=  4 NonCon=     1 RMS=2.72D-07 Max=8.35D-05 NDo=     1
 LinEq1:  Iter=  5 NonCon=     1 RMS=8.30D-08 Max=1.88D-05 NDo=     1
 LinEq1:  Iter=  6 NonCon=     1 RMS=2.95D-08 Max=3.79D-06 NDo=     1
 LinEq1:  Iter=  7 NonCon=     1 RMS=9.41D-09 Max=2.13D-06 NDo=     1
 LinEq1:  Iter=  8 NonCon=     0 RMS=3.43D-09 Max=4.70D-07 NDo=     1
 Linear equations converged to 6.836D-08 6.836D-07 after     8 iterations.
     Minimum is close to point  2 DX=  2.76D-02 DF= -2.77D-07 DXR=  2.69D-02 DFR=  7.24D-04 which will be used.
 LinEq1:  Iter=  0 NonCon=     1 RMS=1.50D-06 Max=2.32D-04 NDo=     1
 LinEq1:  Iter=  1 NonCon=     1 RMS=4.95D-07 Max=8.49D-05 NDo=     1
 LinEq1:  Iter=  2 NonCon=     1 RMS=2.03D-07 Max=2.46D-05 NDo=     1
 LinEq1:  Iter=  3 NonCon=     1 RMS=6.29D-08 Max=1.05D-05 NDo=     1
 LinEq1:  Iter=  4 NonCon=     1 RMS=2.45D-08 Max=4.46D-06 NDo=     1
 LinEq1:  Iter=  5 NonCon=     1 RMS=7.78D-09 Max=1.07D-06 NDo=     1
 LinEq1:  Iter=  6 NonCon=     1 RMS=3.06D-09 Max=5.13D-07 NDo=     1
 LinEq1:  Iter=  7 NonCon=     1 RMS=9.29D-10 Max=1.41D-07 NDo=     1
 LinEq1:  Iter=  8 NonCon=     0 RMS=2.99D-10 Max=4.17D-08 NDo=     1
 Linear equations converged to 6.616D-09 6.616D-08 after     8 iterations.
 LinEq1:  Iter=  0 NonCon=     1 RMS=8.54D-08 Max=1.27D-05 NDo=     1
 LinEq1:  Iter=  1 NonCon=     1 RMS=3.59D-08 Max=7.19D-06 NDo=     1
 LinEq1:  Iter=  2 NonCon=     1 RMS=1.19D-08 Max=2.39D-06 NDo=     1
 LinEq1:  Iter=  3 NonCon=     1 RMS=4.04D-09 Max=6.91D-07 NDo=     1
 LinEq1:  Iter=  4 NonCon=     1 RMS=1.28D-09 Max=1.87D-07 NDo=     1
 LinEq1:  Iter=  5 NonCon=     1 RMS=4.83D-10 Max=7.43D-08 NDo=     1
 LinEq1:  Iter=  6 NonCon=     1 RMS=1.65D-10 Max=2.20D-08 NDo=     1
 LinEq1:  Iter=  7 NonCon=     1 RMS=6.62D-11 Max=8.64D-09 NDo=     1
 LinEq1:  Iter=  8 NonCon=     0 RMS=2.29D-11 Max=3.13D-09 NDo=     1
 Linear equations converged to 4.005D-10 4.005D-09 after     8 iterations.
 SCF Done:  E(UPM6D3) =  -2.73455522555     a.u. after   42 cycles
            Convg  =    0.4257D-05                   120 Fock formations.
              S**2 =  5.3153                  -V/T =  0.9988
 <Sx>= 0.0000 <Sy>= 0.0000 <Sz>= 0.5000 <S**2>= 5.3153 S= 1.8591
 <L.S>= 0.000000000000E+00
 Annihilation of the first spin contaminant:
 S**2 before annihilation     5.3153,   after    16.5024

 **********************************************************************

            Population analysis using the SCF Density.

 **********************************************************************

 Orbital symmetries:
 Alpha Orbitals:
       Occupied  (A) (A) (A) (A) (A) (A) (A) (A) (A) (A) (A) (A)
                 (A) (A) (A) (A) (A) (A) (A) (A) (A) (A) (A) (A)
                 (A) (A) (A) (A) (A) (A) (A) (A) (A) (A) (A) (A)
                 (A) (A) (A) (A) (A) (A) (A) (A) (A) (A) (A) (A)
                 (A) (A) (A) (A) (A) (A) (A) (A) (A) (A) (A) (A)
                 (A) (A) (A) (A) (A) (A) (A) (A) (A) (A) (A) (A)
                 (A) (A) (A) (A) (A) (A) (A) (A) (A) (A) (A) (A)
                 (A) (A) (A) (A) (A) (A) (A) (A) (A) (A) (A) (A)
                 (A) (A) (A) (A) (A) (A) (A) (A) (A) (A) (A) (A)
                 (A) (A) (A) (A) (A) (A) (A) (A) (A) (A) (A) (A)
                 (A) (A) (A) (A) (A) (A) (A) (A) (A) (A) (A) (A)
                 (A) (A) (A) (A) (A) (A) (A) (A) (A) (A) (A) (A)
                 (A) (A) (A) (A) (A) (A) (A) (A) (A) (A) (A) (A)
                 (A) (A) (A) (A) (A) (A) (A) (A) (A) (A) (A) (A)
                 (A) (A) (A) (A) (A) (A) (A) (A) (A) (A) (A) (A)
                 (A) (A) (A) (A) (A) (A) (A) (A) (A) (A) (A) (A)
                 (A) (A) (A) (A) (A) (A) (A) (A) (A) (A) (A) (A)
                 (A) (A) (A) (A) (A) (A) (A) (A) (A) (A) (A) (A)
                 (A) (A) (A) (A) (A) (A) (A) (A) (A) (A) (A) (A)
                 (A) (A) (A) (A) (A) (A) (A) (A) (A) (A) (A) (A)
                 (A) (A) (A) (A) (A) (A) (A) (A) (A) (A) (A) (A)
                 (A) (A) (A) (A) (A) (A) (A) (A) (A) (A) (A) (A)
                 (A) (A) (A) (A) (A) (A) (A) (A) (A) (A) (A) (A)
                 (A) (A) (A) (A) (A) (A) (A) (A) (A) (A) (A) (A)
                 (A) (A) (A) (A) (A) (A) (A) (A) (A) (A) (A) (A)
                 (A) (A) (A) (A) (A) (A) (A) (A) (A) (A) (A) (A)
                 (A) (A) (A) (A) (A) (A) (A) (A) (A) (A) (A) (A)
                 (A) (A) (A) (A) (A) (A) (A) (A) (A) (A) (A) (A)
                 (A) (A) (A) (A) (A) (A) (A) (A) (A) (A) (A) (A)
                 (A) (A) (A) (A) (A) (A) (A) (A) (A) (A) (A) (A)
                 (A) (A) (A) (A) (A) (A) (A) (A) (A) (A) (A) (A)
                 (A) (A) (A) (A) (A) (A) (A) (A) (A) (A) (A) (A)
                 (A) (A) (A) (A) (A) (A) (A) (A) (A) (A) (A) (A)
                 (A) (A) (A) (A) (A) (A) (A) (A) (A) (A) (A) (A)
                 (A) (A) (A) (A) (A) (A) (A) (A) (A) (A) (A) (A)
                 (A) (A) (A) (A) (A) (A) (A) (A) (A) (A) (A) (A)
                 (A) (A) (A) (A) (A) (A) (A) (A) (A) (A) (A) (A)
                 (A) (A) (A) (A) (A) (A) (A) (A) (A) (A) (A) (A)
                 (A) (A) (A) (A) (A) (A) (A) (A) (A) (A) (A) (A)
                 (A) (A) (A) (A) (A) (A) (A) (A) (A) (A) (A) (A)
                 (A) (A) (A) (A) (A) (A) (A) (A) (A) (A) (A) (A)
                 (A) (A) (A) (A) (A) (A) (A) (A) (A) (A) (A) (A)
                 (A) (A) (A) (A) (A) (A) (A) (A) (A) (A) (A) (A)
                 (A) (A) (A) (A) (A) (A) (A) (A) (A) (A) (A) (A)
                 (A) (A) (A) (A) (A) (A) (A) (A) (A) (A) (A) (A)
                 (A) (A) (A) (A) (A) (A) (A)
       Virtual   (A) (A) (A) (A) (A) (A) (A) (A) (A) (A) (A) (A)
                 (A) (A) (A) (A) (A) (A) (A) (A) (A) (A) (A) (A)
                 (A) (A) (A) (A) (A) (A) (A) (A) (A) (A) (A) (A)
                 (A) (A) (A) (A) (A) (A) (A) (A) (A) (A) (A) (A)
                 (A) (A) (A) (A) (A) (A) (A) (A) (A) (A) (A) (A)
                 (A) (A) (A) (A) (A) (A) (A) (A) (A) (A) (A) (A)
                 (A) (A) (A) (A) (A) (A) (A) (A) (A) (A) (A) (A)
                 (A) (A) (A) (A) (A) (A) (A) (A) (A) (A) (A) (A)
                 (A) (A) (A) (A) (A) (A) (A) (A) (A) (A) (A) (A)
                 (A) (A) (A) (A) (A) (A) (A) (A) (A) (A) (A) (A)
                 (A) (A) (A) (A) (A) (A) (A) (A) (A) (A) (A) (A)
                 (A) (A) (A) (A) (A) (A) (A) (A) (A) (A) (A) (A)
                 (A) (A) (A) (A) (A) (A) (A) (A) (A) (A) (A) (A)
                 (A) (A) (A) (A) (A) (A) (A) (A) (A) (A) (A) (A)
                 (A) (A) (A) (A) (A) (A) (A) (A) (A) (A) (A) (A)
                 (A) (A) (A) (A) (A) (A) (A) (A) (A) (A) (A) (A)
                 (A) (A) (A) (A) (A) (A) (A) (A) (A) (A) (A) (A)
                 (A) (A) (A) (A) (A) (A) (A) (A) (A) (A) (A) (A)
                 (A) (A) (A) (A) (A) (A) (A) (A) (A) (A) (A) (A)
                 (A) (A) (A) (A) (A) (A) (A) (A) (A) (A) (A) (A)
                 (A) (A) (A) (A) (A) (A) (A) (A) (A) (A) (A) (A)
                 (A) (A) (A) (A) (A) (A) (A) (A) (A) (A) (A) (A)
                 (A) (A) (A) (A) (A) (A) (A) (A) (A) (A) (A) (A)
                 (A) (A) (A) (A) (A) (A) (A) (A) (A) (A) (A) (A)
                 (A) (A) (A) (A) (A) (A) (A) (A) (A) (A) (A) (A)
                 (A) (A) (A) (A) (A) (A) (A) (A) (A) (A) (A) (A)
                 (A) (A) (A) (A) (A) (A) (A) (A) (A) (A) (A) (A)
                 (A) (A) (A) (A) (A) (A) (A) (A) (A) (A) (A) (A)
                 (A) (A) (A) (A) (A) (A) (A) (A) (A) (A) (A) (A)
                 (A) (A) (A) (A) (A) (A) (A) (A) (A) (A) (A) (A)
                 (A) (A) (A) (A) (A) (A) (A) (A) (A) (A) (A) (A)
                 (A) (A) (A) (A) (A) (A) (A) (A) (A) (A) (A) (A)
                 (A) (A) (A) (A) (A) (A) (A) (A) (A) (A) (A) (A)
                 (A) (A) (A) (A) (A) (A) (A) (A) (A) (A) (A) (A)
                 (A) (A) (A) (A) (A) (A) (A) (A) (A) (A) (A) (A)
                 (A) (A) (A) (A) (A) (A) (A)
 Beta  Orbitals:
       Occupied  (A) (A) (A) (A) (A) (A) (A) (A) (A) (A) (A) (A)
                 (A) (A) (A) (A) (A) (A) (A) (A) (A) (A) (A) (A)
                 (A) (A) (A) (A) (A) (A) (A) (A) (A) (A) (A) (A)
                 (A) (A) (A) (A) (A) (A) (A) (A) (A) (A) (A) (A)
                 (A) (A) (A) (A) (A) (A) (A) (A) (A) (A) (A) (A)
                 (A) (A) (A) (A) (A) (A) (A) (A) (A) (A) (A) (A)
                 (A) (A) (A) (A) (A) (A) (A) (A) (A) (A) (A) (A)
                 (A) (A) (A) (A) (A) (A) (A) (A) (A) (A) (A) (A)
                 (A) (A) (A) (A) (A) (A) (A) (A) (A) (A) (A) (A)
                 (A) (A) (A) (A) (A) (A) (A) (A) (A) (A) (A) (A)
                 (A) (A) (A) (A) (A) (A) (A) (A) (A) (A) (A) (A)
                 (A) (A) (A) (A) (A) (A) (A) (A) (A) (A) (A) (A)
                 (A) (A) (A) (A) (A) (A) (A) (A) (A) (A) (A) (A)
                 (A) (A) (A) (A) (A) (A) (A) (A) (A) (A) (A) (A)
                 (A) (A) (A) (A) (A) (A) (A) (A) (A) (A) (A) (A)
                 (A) (A) (A) (A) (A) (A) (A) (A) (A) (A) (A) (A)
                 (A) (A) (A) (A) (A) (A) (A) (A) (A) (A) (A) (A)
                 (A) (A) (A) (A) (A) (A) (A) (A) (A) (A) (A) (A)
                 (A) (A) (A) (A) (A) (A) (A) (A) (A) (A) (A) (A)
                 (A) (A) (A) (A) (A) (A) (A) (A) (A) (A) (A) (A)
                 (A) (A) (A) (A) (A) (A) (A) (A) (A) (A) (A) (A)
                 (A) (A) (A) (A) (A) (A) (A) (A) (A) (A) (A) (A)
                 (A) (A) (A) (A) (A) (A) (A) (A) (A) (A) (A) (A)
                 (A) (A) (A) (A) (A) (A) (A) (A) (A) (A) (A) (A)
                 (A) (A) (A) (A) (A) (A) (A) (A) (A) (A) (A) (A)
                 (A) (A) (A) (A) (A) (A) (A) (A) (A) (A) (A) (A)
                 (A) (A) (A) (A) (A) (A) (A) (A) (A) (A) (A) (A)
                 (A) (A) (A) (A) (A) (A) (A) (A) (A) (A) (A) (A)
                 (A) (A) (A) (A) (A) (A) (A) (A) (A) (A) (A) (A)
                 (A) (A) (A) (A) (A) (A) (A) (A) (A) (A) (A) (A)
                 (A) (A) (A) (A) (A) (A) (A) (A) (A) (A) (A) (A)
                 (A) (A) (A) (A) (A) (A) (A) (A) (A) (A) (A) (A)
                 (A) (A) (A) (A) (A) (A) (A) (A) (A) (A) (A) (A)
                 (A) (A) (A) (A) (A) (A) (A) (A) (A) (A) (A) (A)
                 (A) (A) (A) (A) (A) (A) (A) (A) (A) (A) (A) (A)
                 (A) (A) (A) (A) (A) (A) (A) (A) (A) (A) (A) (A)
                 (A) (A) (A) (A) (A) (A) (A) (A) (A) (A) (A) (A)
                 (A) (A) (A) (A) (A) (A) (A) (A) (A) (A) (A) (A)
                 (A) (A) (A) (A) (A) (A) (A) (A) (A) (A) (A) (A)
                 (A) (A) (A) (A) (A) (A) (A) (A) (A) (A) (A) (A)
                 (A) (A) (A) (A) (A) (A) (A) (A) (A) (A) (A) (A)
                 (A) (A) (A) (A) (A) (A) (A) (A) (A) (A) (A) (A)
                 (A) (A) (A) (A) (A) (A) (A) (A) (A) (A) (A) (A)
                 (A) (A) (A) (A) (A) (A) (A) (A) (A) (A) (A) (A)
                 (A) (A) (A) (A) (A) (A) (A) (A) (A) (A) (A) (A)
                 (A) (A) (A) (A) (A) (A)
       Virtual   (A) (A) (A) (A) (A) (A) (A) (A) (A) (A) (A) (A)
                 (A) (A) (A) (A) (A) (A) (A) (A) (A) (A) (A) (A)
                 (A) (A) (A) (A) (A) (A) (A) (A) (A) (A) (A) (A)
                 (A) (A) (A) (A) (A) (A) (A) (A) (A) (A) (A) (A)
                 (A) (A) (A) (A) (A) (A) (A) (A) (A) (A) (A) (A)
                 (A) (A) (A) (A) (A) (A) (A) (A) (A) (A) (A) (A)
                 (A) (A) (A) (A) (A) (A) (A) (A) (A) (A) (A) (A)
                 (A) (A) (A) (A) (A) (A) (A) (A) (A) (A) (A) (A)
                 (A) (A) (A) (A) (A) (A) (A) (A) (A) (A) (A) (A)
                 (A) (A) (A) (A) (A) (A) (A) (A) (A) (A) (A) (A)
                 (A) (A) (A) (A) (A) (A) (A) (A) (A) (A) (A) (A)
                 (A) (A) (A) (A) (A) (A) (A) (A) (A) (A) (A) (A)
                 (A) (A) (A) (A) (A) (A) (A) (A) (A) (A) (A) (A)
                 (A) (A) (A) (A) (A) (A) (A) (A) (A) (A) (A) (A)
                 (A) (A) (A) (A) (A) (A) (A) (A) (A) (A) (A) (A)
                 (A) (A) (A) (A) (A) (A) (A) (A) (A) (A) (A) (A)
                 (A) (A) (A) (A) (A) (A) (A) (A) (A) (A) (A) (A)
                 (A) (A) (A) (A) (A) (A) (A) (A) (A) (A) (A) (A)
                 (A) (A) (A) (A) (A) (A) (A) (A) (A) (A) (A) (A)
                 (A) (A) (A) (A) (A) (A) (A) (A) (A) (A) (A) (A)
                 (A) (A) (A) (A) (A) (A) (A) (A) (A) (A) (A) (A)
                 (A) (A) (A) (A) (A) (A) (A) (A) (A) (A) (A) (A)
                 (A) (A) (A) (A) (A) (A) (A) (A) (A) (A) (A) (A)
                 (A) (A) (A) (A) (A) (A) (A) (A) (A) (A) (A) (A)
                 (A) (A) (A) (A) (A) (A) (A) (A) (A) (A) (A) (A)
                 (A) (A) (A) (A) (A) (A) (A) (A) (A) (A) (A) (A)
                 (A) (A) (A) (A) (A) (A) (A) (A) (A) (A) (A) (A)
                 (A) (A) (A) (A) (A) (A) (A) (A) (A) (A) (A) (A)
                 (A) (A) (A) (A) (A) (A) (A) (A) (A) (A) (A) (A)
                 (A) (A) (A) (A) (A) (A) (A) (A) (A) (A) (A) (A)
                 (A) (A) (A) (A) (A) (A) (A) (A) (A) (A) (A) (A)
                 (A) (A) (A) (A) (A) (A) (A) (A) (A) (A) (A) (A)
                 (A) (A) (A) (A) (A) (A) (A) (A) (A) (A) (A) (A)
                 (A) (A) (A) (A) (A) (A) (A) (A) (A) (A) (A) (A)
                 (A) (A) (A) (A) (A) (A) (A) (A) (A) (A) (A) (A)
                 (A) (A) (A) (A) (A) (A) (A) (A)
 The electronic state is 2-A.
 Alpha  occ. eigenvalues --   -1.44077  -1.41850  -1.41067  -1.39662  -1.38908
 Alpha  occ. eigenvalues --   -1.38895  -1.38206  -1.36659  -1.36450  -1.35266
 Alpha  occ. eigenvalues --   -1.35044  -1.34773  -1.34200  -1.32611  -1.32263
 Alpha  occ. eigenvalues --   -1.31532  -1.29632  -1.29503  -1.29187  -1.29052
 Alpha  occ. eigenvalues --   -1.28639  -1.28564  -1.28239  -1.28168  -1.27271
 Alpha  occ. eigenvalues --   -1.26914  -1.26136  -1.25681  -1.25408  -1.25374
 Alpha  occ. eigenvalues --   -1.25137  -1.24613  -1.24491  -1.24202  -1.24080
 Alpha  occ. eigenvalues --   -1.24036  -1.23871  -1.23309  -1.22989  -1.22795
 Alpha  occ. eigenvalues --   -1.22607  -1.22494  -1.22310  -1.21444  -1.21338
 Alpha  occ. eigenvalues --   -1.21166  -1.21133  -1.21000  -1.20933  -1.20874
 Alpha  occ. eigenvalues --   -1.20437  -1.20412  -1.20387  -1.20268  -1.20192
 Alpha  occ. eigenvalues --   -1.20001  -1.19927  -1.19751  -1.19641  -1.19582
 Alpha  occ. eigenvalues --   -1.18765  -1.18751  -1.18610  -1.18542  -1.18496
 Alpha  occ. eigenvalues --   -1.18407  -1.17333  -1.17217  -1.16895  -1.16894
 Alpha  occ. eigenvalues --   -1.16454  -1.15839  -1.15778  -1.15503  -1.14825
 Alpha  occ. eigenvalues --   -1.14539  -1.14477  -1.14365  -1.13822  -1.13252
 Alpha  occ. eigenvalues --   -1.12836  -1.12498  -1.11470  -1.11258  -1.11002
 Alpha  occ. eigenvalues --   -1.10943  -1.10569  -1.10565  -1.10441  -1.10424
 Alpha  occ. eigenvalues --   -1.09921  -1.09815  -1.09657  -1.09066  -1.08701
 Alpha  occ. eigenvalues --   -1.08480  -1.08038  -1.07992  -1.07562  -1.07418
 Alpha  occ. eigenvalues --   -1.06844  -1.06783  -1.06531  -1.06234  -1.06147
 Alpha  occ. eigenvalues --   -1.05463  -1.04662  -1.04603  -1.04405  -1.03727
 Alpha  occ. eigenvalues --   -1.03713  -1.02807  -1.02728  -1.02357  -1.02084
 Alpha  occ. eigenvalues --   -1.01900  -1.01229  -1.00599  -1.00503  -1.00207
 Alpha  occ. eigenvalues --   -1.00143  -0.99832  -0.99443  -0.98847  -0.98646
 Alpha  occ. eigenvalues --   -0.98466  -0.97717  -0.97628  -0.96596  -0.96528
 Alpha  occ. eigenvalues --   -0.96375  -0.96366  -0.95939  -0.95599  -0.95536
 Alpha  occ. eigenvalues --   -0.95276  -0.95042  -0.94926  -0.94731  -0.94525
 Alpha  occ. eigenvalues --   -0.94458  -0.94217  -0.94204  -0.94103  -0.93551
 Alpha  occ. eigenvalues --   -0.93455  -0.93363  -0.93130  -0.93024  -0.91655
 Alpha  occ. eigenvalues --   -0.91525  -0.91398  -0.91196  -0.91021  -0.90259
 Alpha  occ. eigenvalues --   -0.90106  -0.89503  -0.88930  -0.88715  -0.88676
 Alpha  occ. eigenvalues --   -0.88310  -0.88299  -0.88158  -0.87829  -0.87142
 Alpha  occ. eigenvalues --   -0.86379  -0.85888  -0.85440  -0.85365  -0.85009
 Alpha  occ. eigenvalues --   -0.84849  -0.84571  -0.84360  -0.84345  -0.83892
 Alpha  occ. eigenvalues --   -0.83847  -0.83320  -0.82466  -0.82396  -0.82205
 Alpha  occ. eigenvalues --   -0.82160  -0.81740  -0.81308  -0.81037  -0.80657
 Alpha  occ. eigenvalues --   -0.80511  -0.80234  -0.80121  -0.79865  -0.79634
 Alpha  occ. eigenvalues --   -0.79350  -0.79228  -0.78999  -0.78957  -0.78900
 Alpha  occ. eigenvalues --   -0.78634  -0.78318  -0.78014  -0.77917  -0.77834
 Alpha  occ. eigenvalues --   -0.77704  -0.77617  -0.77275  -0.77056  -0.76933
 Alpha  occ. eigenvalues --   -0.76627  -0.76477  -0.76426  -0.76353  -0.75912
 Alpha  occ. eigenvalues --   -0.75172  -0.75118  -0.75065  -0.75009  -0.74939
 Alpha  occ. eigenvalues --   -0.74599  -0.74501  -0.74030  -0.74005  -0.73723
 Alpha  occ. eigenvalues --   -0.73635  -0.73469  -0.73328  -0.73242  -0.73029
 Alpha  occ. eigenvalues --   -0.72854  -0.72766  -0.72602  -0.72479  -0.72326
 Alpha  occ. eigenvalues --   -0.72132  -0.71899  -0.71872  -0.71813  -0.71730
 Alpha  occ. eigenvalues --   -0.71611  -0.71507  -0.71364  -0.71228  -0.71151
 Alpha  occ. eigenvalues --   -0.70977  -0.70876  -0.70509  -0.70384  -0.70333
 Alpha  occ. eigenvalues --   -0.70223  -0.70170  -0.69762  -0.69597  -0.69541
 Alpha  occ. eigenvalues --   -0.69388  -0.69270  -0.68937  -0.68806  -0.68697
 Alpha  occ. eigenvalues --   -0.68582  -0.68395  -0.68343  -0.68288  -0.68191
 Alpha  occ. eigenvalues --   -0.68035  -0.67947  -0.67721  -0.67540  -0.67531
 Alpha  occ. eigenvalues --   -0.67342  -0.67287  -0.67125  -0.67031  -0.66991
 Alpha  occ. eigenvalues --   -0.66849  -0.66799  -0.66715  -0.66654  -0.66590
 Alpha  occ. eigenvalues --   -0.66456  -0.66340  -0.65956  -0.65848  -0.65592
 Alpha  occ. eigenvalues --   -0.65481  -0.65405  -0.65355  -0.65272  -0.65151
 Alpha  occ. eigenvalues --   -0.65131  -0.65048  -0.64897  -0.64797  -0.64775
 Alpha  occ. eigenvalues --   -0.64584  -0.64540  -0.64417  -0.64394  -0.64265
 Alpha  occ. eigenvalues --   -0.64153  -0.64147  -0.63900  -0.63826  -0.63691
 Alpha  occ. eigenvalues --   -0.63629  -0.63480  -0.63385  -0.63198  -0.63088
 Alpha  occ. eigenvalues --   -0.62894  -0.62763  -0.62550  -0.62517  -0.62359
 Alpha  occ. eigenvalues --   -0.62259  -0.62227  -0.62086  -0.62028  -0.61945
 Alpha  occ. eigenvalues --   -0.61886  -0.61679  -0.61539  -0.61414  -0.61342
 Alpha  occ. eigenvalues --   -0.61171  -0.61029  -0.61020  -0.60941  -0.60818
 Alpha  occ. eigenvalues --   -0.60642  -0.60531  -0.60460  -0.60360  -0.60159
 Alpha  occ. eigenvalues --   -0.60120  -0.60022  -0.59871  -0.59765  -0.59688
 Alpha  occ. eigenvalues --   -0.59571  -0.59530  -0.59449  -0.59402  -0.59261
 Alpha  occ. eigenvalues --   -0.59238  -0.59122  -0.58903  -0.58886  -0.58808
 Alpha  occ. eigenvalues --   -0.58743  -0.58569  -0.58421  -0.58395  -0.58356
 Alpha  occ. eigenvalues --   -0.58243  -0.58083  -0.58013  -0.57805  -0.57746
 Alpha  occ. eigenvalues --   -0.57557  -0.57421  -0.57304  -0.57249  -0.57013
 Alpha  occ. eigenvalues --   -0.56961  -0.56863  -0.56835  -0.56720  -0.56655
 Alpha  occ. eigenvalues --   -0.56616  -0.56410  -0.56381  -0.56302  -0.56204
 Alpha  occ. eigenvalues --   -0.56124  -0.56089  -0.56046  -0.56012  -0.55903
 Alpha  occ. eigenvalues --   -0.55618  -0.55466  -0.55418  -0.55380  -0.55369
 Alpha  occ. eigenvalues --   -0.55260  -0.55138  -0.55031  -0.54935  -0.54839
 Alpha  occ. eigenvalues --   -0.54582  -0.54408  -0.54383  -0.54313  -0.54193
 Alpha  occ. eigenvalues --   -0.54132  -0.54090  -0.54075  -0.54008  -0.53775
 Alpha  occ. eigenvalues --   -0.53658  -0.53567  -0.53492  -0.53454  -0.53315
 Alpha  occ. eigenvalues --   -0.53308  -0.53250  -0.53137  -0.53119  -0.53086
 Alpha  occ. eigenvalues --   -0.53066  -0.52964  -0.52955  -0.52857  -0.52623
 Alpha  occ. eigenvalues --   -0.52568  -0.52514  -0.52360  -0.52220  -0.52146
 Alpha  occ. eigenvalues --   -0.51769  -0.51668  -0.51506  -0.51488  -0.51415
 Alpha  occ. eigenvalues --   -0.51290  -0.51229  -0.50998  -0.50919  -0.50691
 Alpha  occ. eigenvalues --   -0.50618  -0.50599  -0.50572  -0.50498  -0.50275
 Alpha  occ. eigenvalues --   -0.50116  -0.50020  -0.50008  -0.49931  -0.49793
 Alpha  occ. eigenvalues --   -0.49590  -0.49527  -0.49488  -0.49474  -0.49353
 Alpha  occ. eigenvalues --   -0.49339  -0.49288  -0.49154  -0.49145  -0.49093
 Alpha  occ. eigenvalues --   -0.49014  -0.48901  -0.48809  -0.48740  -0.48681
 Alpha  occ. eigenvalues --   -0.48652  -0.48553  -0.48477  -0.48400  -0.48372
 Alpha  occ. eigenvalues --   -0.48157  -0.48112  -0.48056  -0.47936  -0.47852
 Alpha  occ. eigenvalues --   -0.47779  -0.47483  -0.47435  -0.47308  -0.47266
 Alpha  occ. eigenvalues --   -0.47258  -0.47143  -0.46944  -0.46937  -0.46887
 Alpha  occ. eigenvalues --   -0.46787  -0.46630  -0.46596  -0.46589  -0.46501
 Alpha  occ. eigenvalues --   -0.46409  -0.46307  -0.46010  -0.45945  -0.45829
 Alpha  occ. eigenvalues --   -0.45782  -0.45714  -0.45710  -0.45660  -0.45462
 Alpha  occ. eigenvalues --   -0.45405  -0.45364  -0.45261  -0.45135  -0.44991
 Alpha  occ. eigenvalues --   -0.44950  -0.44814  -0.44778  -0.44629  -0.44369
 Alpha  occ. eigenvalues --   -0.44307  -0.44217  -0.44054  -0.43918  -0.43802
 Alpha  occ. eigenvalues --   -0.43587  -0.43495  -0.43480  -0.43244  -0.42893
 Alpha  occ. eigenvalues --   -0.42849  -0.42814  -0.42729  -0.42443  -0.42172
 Alpha  occ. eigenvalues --   -0.42158  -0.41958  -0.41626  -0.41525  -0.41279
 Alpha  occ. eigenvalues --   -0.41181  -0.41024  -0.40961  -0.40692  -0.40572
 Alpha  occ. eigenvalues --   -0.40510  -0.40355  -0.40037  -0.39777  -0.39212
 Alpha  occ. eigenvalues --   -0.39101  -0.38763  -0.38631  -0.38598  -0.38195
 Alpha  occ. eigenvalues --   -0.37754  -0.37478  -0.37049  -0.36786  -0.35537
 Alpha  occ. eigenvalues --   -0.35289  -0.35026  -0.34676  -0.34427  -0.34174
 Alpha  occ. eigenvalues --   -0.33940  -0.33186  -0.32340  -0.32169  -0.31172
 Alpha  occ. eigenvalues --   -0.30344  -0.30285
 Alpha virt. eigenvalues --   -0.22691  -0.21205  -0.19781  -0.18073  -0.12744
 Alpha virt. eigenvalues --   -0.11068  -0.09419  -0.09231  -0.08555  -0.08089
 Alpha virt. eigenvalues --   -0.07705  -0.07282  -0.07275  -0.07247  -0.07149
 Alpha virt. eigenvalues --   -0.06803  -0.06481  -0.06204  -0.06051  -0.05594
 Alpha virt. eigenvalues --   -0.05142  -0.05083  -0.04996  -0.04934  -0.04907
 Alpha virt. eigenvalues --   -0.04686  -0.04461  -0.04335  -0.04046  -0.03929
 Alpha virt. eigenvalues --   -0.03903  -0.03896  -0.03783  -0.03780  -0.03668
 Alpha virt. eigenvalues --   -0.03556  -0.03431  -0.03225  -0.03195  -0.03118
 Alpha virt. eigenvalues --   -0.02977  -0.02905  -0.02811  -0.02622  -0.02588
 Alpha virt. eigenvalues --   -0.02275  -0.02270  -0.02061  -0.01977  -0.01938
 Alpha virt. eigenvalues --   -0.01839  -0.01157  -0.01119  -0.00988  -0.00764
 Alpha virt. eigenvalues --   -0.00482  -0.00362  -0.00281  -0.00230  -0.00192
 Alpha virt. eigenvalues --   -0.00160  -0.00100  -0.00065   0.00291   0.00390
 Alpha virt. eigenvalues --    0.00692   0.00735   0.00791   0.00819   0.00839
 Alpha virt. eigenvalues --    0.00972   0.01291   0.01306   0.01470   0.01540
 Alpha virt. eigenvalues --    0.01561   0.01574   0.01614   0.01784   0.01814
 Alpha virt. eigenvalues --    0.01872   0.01889   0.01937   0.02021   0.02065
 Alpha virt. eigenvalues --    0.02145   0.02205   0.02613   0.02812   0.02885
 Alpha virt. eigenvalues --    0.02971   0.02982   0.03031   0.03103   0.03239
 Alpha virt. eigenvalues --    0.03423   0.03458   0.03482   0.03644   0.03682
 Alpha virt. eigenvalues --    0.03786   0.03942   0.03963   0.04012   0.04071
 Alpha virt. eigenvalues --    0.04134   0.04153   0.04258   0.04666   0.04714
 Alpha virt. eigenvalues --    0.04742   0.04884   0.04919   0.04955   0.04978
 Alpha virt. eigenvalues --    0.05023   0.05115   0.05154   0.05315   0.05353
 Alpha virt. eigenvalues --    0.05632   0.05761   0.05858   0.05991   0.06018
 Alpha virt. eigenvalues --    0.06152   0.06192   0.06278   0.06350   0.06397
 Alpha virt. eigenvalues --    0.06506   0.06527   0.06628   0.06664   0.06665
 Alpha virt. eigenvalues --    0.06848   0.06939   0.07036   0.07052   0.07135
 Alpha virt. eigenvalues --    0.07196   0.07210   0.07231   0.07246   0.07285
 Alpha virt. eigenvalues --    0.07311   0.07456   0.07529   0.07568   0.07610
 Alpha virt. eigenvalues --    0.07625   0.07642   0.07758   0.07880   0.07988
 Alpha virt. eigenvalues --    0.08016   0.08058   0.08061   0.08087   0.08109
 Alpha virt. eigenvalues --    0.08124   0.08176   0.08219   0.08237   0.08247
 Alpha virt. eigenvalues --    0.08253   0.08388   0.08391   0.08516   0.08603
 Alpha virt. eigenvalues --    0.08637   0.08643   0.08815   0.08880   0.08995
 Alpha virt. eigenvalues --    0.09030   0.09073   0.09125   0.09139   0.09155
 Alpha virt. eigenvalues --    0.09164   0.09237   0.09303   0.09408   0.09435
 Alpha virt. eigenvalues --    0.09623   0.09645   0.09668   0.09726   0.09762
 Alpha virt. eigenvalues --    0.09775   0.09814   0.09854   0.09873   0.10140
 Alpha virt. eigenvalues --    0.10158   0.10170   0.10285   0.10331   0.10347
[...]
   255  H    0.197192   0.000073
   256  H    0.158731  -0.000071
   257  H    0.161221  -0.000138
   258  H    0.165289  -0.000006
   259  H    0.159815  -0.000056
   260  H    0.127813  -0.000046
   261  H    0.144913   0.000100
   262  H    0.184067   0.000014
   263  H    0.330469   0.000269
   264  H    0.155089   0.000005
   265  H    0.180925  -0.000000
   266  H    0.163120   0.000005
   267  H    0.168211   0.000001
   268  H    0.193506  -0.000039
   269  H    0.183716  -0.000045
   270  H    0.146318   0.000058
   271  H    0.147121  -0.000017
   272  H    0.184821   0.000002
   273  H    0.179105   0.000005
   274  H    0.187104   0.000000
   275  H    0.212277   0.000001
   276  H    0.322057   0.000002
   277  H    0.280120   0.000003
   278  H    0.165533   0.000001
   279  H    0.206537   0.000005
   280  H    0.176632   0.000005
   281  H    0.167697   0.000015
   282  H    0.158692  -0.000161
   283  H    0.147763   0.000051
   284  H    0.157437  -0.000117
   285  H    0.238320   0.007053
   286  H    0.347095  -0.001537
   287  H    0.334762   0.016059
   288  H    0.302032   0.016730
   289  H    0.159197   0.000366
   290  H    0.178917   0.000015
   291  H    0.231856  -0.000068
   292  H    0.151631   0.000237
   293  H    0.149700  -0.000015
   294  H    0.139310   0.000016
   295  H    0.161558  -0.000006
   296  H    0.192008  -0.000004
   297  H    0.211961  -0.000001
   298  H    0.318026   0.000008
   299  H    0.281868   0.000007
   300  H    0.162165   0.000001
   301  H    0.196211  -0.000086
   302  H    0.184693  -0.000014
   303  H    0.174470   0.000015
   304  H    0.154306  -0.000139
   305  H    0.137515   0.000164
   306  H    0.162930   0.000118
   307  H    0.254942  -0.006711
   308  H    0.345457   0.001734
   309  H    0.339697  -0.017965
   310  H    0.299096  -0.019020
   311  H    0.150079  -0.000399
   312  H    0.195468   0.000051
   313  H    0.182311   0.000033
   314  H    0.163829   0.000000
   315  H    0.319222   0.000002
   316  H    0.138553   0.000004
   317  H    0.135564  -0.000001
   318  H    0.164043  -0.000002
   319  H    0.163092   0.000125
   320  H    0.169950   0.000007
 Sum of Mulliken charges =   0.00000   1.00000
 Mulliken charges and spin densities with hydrogens summed into heavy atoms:
               1          2
     1  O   -0.224168  -0.000000
     2  C    0.207499   0.000000
     3  C    0.218172   0.000000
     4  O   -0.435093   0.000000
     5  C    0.378159  -0.000001
     6  O   -0.721304  -0.000000
     7  C   -0.115069   0.000001
     8  C    0.517855  -0.000011
     9  N   -0.333727  -0.000124
    10  C    0.713473   0.000272
    11  O   -0.595413  -0.002237
    12  N   -0.718294   0.000311
    13  C    0.541594   0.000002
    14  N    0.075205  -0.000283
    15  C   -0.350537   0.000112
    16  C    0.411585  -0.000120
    17  P    1.794286   0.000000
    18  O   -0.933288  -0.000002
    19  O   -0.943009  -0.000003
    20  O   -0.681966  -0.000002
    21  C    0.339034   0.000163
    22  C    0.194167   0.000445
    23  O   -0.439103  -0.000137
    24  C    0.381935   0.000858
    25  O   -0.729226   0.020230
    26  C   -0.076710  -0.000662
    27  C    0.486226  -0.000013
    28  N   -0.184214   0.000011
    29  C    0.231540   0.000020
    30  N   -0.225687  -0.000010
    31  C   -0.312656   0.000044
    32  C    0.676797  -0.000006
    33  O   -0.577171  -0.000013
    34  N   -0.205711  -0.000011
    35  C    0.491928  -0.000096
    36  N    0.100722   0.000009
    37  N   -0.521614   0.000253
    38  C    0.231373  -0.000060
    39  P    1.788077   0.120277
    40  O   -0.517464  -0.589071
    41  O   -0.516228  -0.573178
    42  O   -0.695525   0.019828
    43  C    0.340376   0.000755
    44  C    0.207390   0.000495
    45  O   -0.436197   0.000003
    46  C    0.346807  -0.000943
    47  O   -0.714529  -0.020012
    48  C   -0.085278   0.000279
    49  C    0.496298  -0.000027
    50  N   -0.332587   0.000139
    51  C    0.706858  -0.000123
    52  O   -0.643231   0.001658
    53  N   -0.698690  -0.000301
    54  C    0.536987  -0.000031
    55  N    0.142137   0.000410
    56  C   -0.298095  -0.000093
    57  C    0.398527   0.000135
    58  P    1.793036  -0.121353
    59  O   -0.481418   0.628542
    60  O   -0.548477   0.533970
    61  O   -0.696019  -0.019367
    62  C    0.315459  -0.000805
    63  C    0.219446  -0.000928
    64  O   -0.423069   0.000134
    65  C    0.325154  -0.000250
    66  O   -0.714556  -0.017371
    67  C   -0.047624   0.000301
    68  C    0.501413  -0.000042
    69  N   -0.191532   0.000015
    70  C    0.180652   0.000065
    71  N   -0.204946  -0.000064
    72  C   -0.360880   0.000069
    73  C    0.680337  -0.000023
    74  O   -0.550274  -0.000019
    75  N   -0.185374   0.000051
    76  C    0.489288   0.000051
    77  N    0.122151  -0.000333
    78  N   -0.523545   0.000073
    79  C    0.258209   0.000025
    80  P    1.786070  -0.120805
    81  O   -0.471633   0.646591
    82  O   -0.571507   0.512602
    83  O   -0.662275  -0.019559
    84  C    0.348250  -0.000357
    85  C    0.216917  -0.000178
    86  O   -0.442100  -0.000145
    87  C    0.361446   0.001952
    88  O   -0.717816   0.018108
    89  C   -0.048383  -0.000879
    90  C    0.494921   0.000801
    91  N   -0.141156  -0.002403
    92  C    0.340350  -0.151409
    93  N   -0.249689   0.049839
    94  C   -0.094604  -0.264371
    95  C    0.245850   0.305690
    96  N    0.613909  -0.646829
    97  N   -0.330408  -0.277311
    98  C    0.429237   0.215402
    99  N   -0.193810  -0.378630
   100  C    0.096001   0.147092
   101  P    1.784947   0.118274
   102  O   -0.408408  -0.743806
   103  O   -0.622467  -0.411546
   104  O   -0.655461   0.017199
   105  C    0.308392  -0.000200
   106  C    0.018765  -0.000147
   107  C    0.289550  -0.000148
   108  O   -0.466063   0.000007
   109  C    0.323816  -0.001917
   110  O   -0.714147  -0.016830
   111  C   -0.089603   0.000284
   112  C    0.500883   0.000011
   113  N   -0.320973   0.000024
   114  C    0.640860   0.000050
   115  O   -0.539078  -0.000104
   116  N   -0.181381   0.001111
   117  C    0.629002   0.000003
   118  O   -0.617767   0.001525
   119  C   -0.294389   0.000383
   120  C    0.104314   0.000008
   121  C    0.297289  -0.000184
   122  P    1.782489  -0.115178
   123  O   -0.385641   0.769867
   124  O   -0.649411   0.379319
   125  O   -0.673308  -0.014932
   126  C    0.316966   0.000114
   127  C    0.208754  -0.000502
   128  O   -0.467264   0.000050
   129  C    0.387515  -0.000030
   130  O   -0.703206  -0.000006
   131  C   -0.095007  -0.000090
   132  C    0.488838   0.000008
   133  N   -0.341397  -0.000002
   134  C    0.680333   0.000022
   135  O   -0.630117   0.000038
   136  N   -0.693911  -0.000149
   137  C    0.519340   0.000036
   138  N    0.142854  -0.000039
   139  C   -0.345525  -0.000022
   140  C    0.416992   0.000020
   141  P    1.780427  -0.000001
   142  O   -0.908641   0.000002
   143  O   -0.941143  -0.000001
   144  O   -0.714042   0.000006
   145  C    0.340682  -0.000126
   146  C    0.187956   0.000260
   147  O   -0.446457   0.000714
   148  C    0.353543  -0.000304
   149  O   -0.722271  -0.013828
   150  C   -0.016068  -0.000595
   151  C    0.484010  -0.001322
   152  N   -0.148951   0.029083
   153  C    0.347174  -0.236254
   154  N   -0.175177   0.023748
   155  C   -0.152877  -0.303902
   156  C    0.642901   0.038092
   157  O   -0.416557  -0.077259
   158  N   -0.141149   0.065342
   159  C    0.432832   0.143095
   160  N    0.379781  -0.328662
   161  N   -0.289707  -0.439590
   162  C    0.138414   0.085709
   163  P    1.781293  -0.118218
   164  O   -0.652032   0.418765
   165  O   -0.404096   0.734748
   166  O   -0.645714  -0.019912
   167  C    0.343630  -0.000594
   168  C    0.188669  -0.000334
   169  O   -0.473048   0.000043
   170  C    0.387370   0.000009
   171  O   -0.709122   0.000002
   172  C   -0.066664   0.000359
   173  C    0.474118  -0.000025
   174  N   -0.352004  -0.000014
   175  C    0.684395   0.000014
   176  O   -0.619083  -0.000021
   177  N   -0.700519   0.000037
   178  C    0.514479   0.000037
   179  N    0.125076  -0.000139
   180  C   -0.360239   0.000017
   181  C    0.439923   0.000011
   182  P    1.780944  -0.000001
   183  O   -0.907539   0.000001
   184  O   -0.947078  -0.000000
   185  O   -0.702090   0.000010
   186  C    0.348141  -0.000013
   187  C    0.187084   0.000033
   188  O   -0.414324  -0.000294
   189  C    0.320013   0.000037
   190  O   -0.217043   0.000002
   191  C   -0.107281  -0.000629
   192  C    0.459917   0.001758
   193  N   -0.162311  -0.035795
   194  C    0.385983   0.228609
   195  N   -0.169260  -0.001335
   196  C   -0.162857   0.290784
   197  C    0.634229  -0.029928
   198  O   -0.434209   0.062633
   199  N   -0.141681  -0.068236
   200  C    0.421719  -0.168111
   201  N    0.419435   0.373816
   202  N   -0.310981   0.424250
   203  C    0.140479  -0.076197
 Charge=              0.0000 electrons
 Dipole moment (field-independent basis, Debye):
    X=             19.8077    Y=             37.8433    Z=             -5.8812  Tot=             43.1167
 N-N= 3.813196897464D+04 E-N=-7.310527170842D+04  KE=-2.349501627225D+03
 1\1\GINC-MACPRO\SP\UPM6D3\ZDO\C97H117N39O58P9(2)\ROOT\02-Apr-2026\0\\#
  geom=connectivity out=wfn pm6d3 scf=xqc\\Optimization of a DNA Fragme
 nt taken from https://www.rcsb.org/structure/1bna\\0,2\O,0,18.935,34.1
 95,25.617\C,0,19.13,33.921,24.219\C,0,19.961,32.668,24.1\O,0,19.36,31.
 583,24.852\C,0,20.172,32.122,22.694\O,0,21.35,31.325,22.681\C,0,18.948
 ,31.223,22.647\C,0,19.231,30.482,23.944\N,0,18.07,29.661,24.38\C,0,18.
 224,28.454,25.015\O,0,19.36,28.014,25.214\N,0,17.143,27.761,25.377\C,0
 ,15.917,28.226,25.12\N,0,14.828,27.477,25.444\C,0,15.719,29.442,24.471
 \C,0,16.843,30.171,24.101\P,0,22.409,31.286,21.483\O,0,23.536,32.157,2
 1.851\O,0,21.822,31.459,20.139\O,0,22.84,29.751,21.498\C,0,23.543,29.1
 75,22.594\C,0,23.494,27.709,22.279\O,0,22.193,27.252,22.674\C,0,23.693
 ,27.325,20.807\O,0,24.723,26.32,20.653\C,0,22.273,26.885,20.416\C,0,21
 .721,26.304,21.716\N,0,20.237,26.47,21.78\C,0,19.526,27.584,21.429\N,0
 ,18.207,27.455,21.636\C,0,18.083,26.212,22.142\C,0,16.904,25.525,22.54
 5\O,0,15.739,25.916,22.518\N,0,17.197,24.279,23.037\C,0,18.434,23.717,
 23.155\N,0,18.508,22.456,23.668\N,0,19.537,24.36,22.77\C,0,19.29,25.59
 4,22.274\P,0,25.064,25.621,19.252\O,0,26.506,25.316,19.22\O,0,24.559,2
 6.412,18.115\O,0,24.26,24.246,19.327\C,0,24.584,23.285,20.335\C,0,23.5
 23,22.233,20.245\O,0,22.256,22.844,20.453\C,0,23.424,21.557,18.903\O,0
 ,24.121,20.309,18.928\C,0,21.93,21.406,18.661\C,0,21.278,21.966,19.909
 \N,0,20.196,22.889,19.521\C,0,18.909,22.584,19.816\O,0,18.685,21.512,2
 0.382\N,0,17.935,23.447,19.502\C,0,18.217,24.603,18.897\N,0,17.221,25.
 499,18.629\C,0,19.526,24.945,18.571\C,0,20.537,24.048,18.899\P,0,24.24
 9,19.412,17.617\O,0,25.42,18.535,17.765\O,0,24.208,20.296,16.44\O,0,22
 .931,18.537,17.67\C,0,22.714,17.625,18.753\C,0,21.393,16.96,18.505\O,0
 ,20.353,17.952,18.496\C,0,21.264,16.229,17.176\O,0,20.284,15.214,17.23
 8\C,0,20.793,17.368,16.288\C,0,19.716,17.901,17.218\N,0,19.305,19.281,
 16.869\C,0,20.017,20.263,16.232\N,0,19.313,21.394,16.077\C,0,18.121,21
 .1,16.635\C,0,16.952,21.904,16.749\O,0,16.769,23.057,16.368\N,0,15.933
 ,21.214,17.352\C,0,15.972,19.93,17.816\N,0,14.831,19.416,18.353\N,0,17
 .068,19.179,17.717\C,0,18.084,19.825,17.121\P,0,20.356,13.969,16.245\O
 ,0,21.116,12.891,16.892\O,0,20.837,14.423,14.91\O,0,18.81,13.581,16.16
 1\C,0,18.015,13.569,17.362\C,0,16.672,14.088,16.957\O,0,16.842,15.447,
 16.561\C,0,16.019,13.393,15.764\O,0,14.762,12.796,16.12\C,0,15.952,14.
 498,14.696\C,0,15.851,15.732,15.569\N,0,16.391,16.916,14.867\C,0,17.65
 8,17.103,14.382\N,0,17.863,18.346,13.913\C,0,16.673,18.953,14.098\C,0,
 16.23,20.279,13.819\N,0,17.045,21.222,13.268\N,0,14.966,20.578,14.118\
 C,0,14.178,19.652,14.669\N,0,14.463,18.392,14.984\C,0,15.75,18.11,14.6
 61\P,0,13.866,12.006,15.063\O,0,13.028,11.039,15.8\O,0,14.715,11.499,1
 3.968\O,0,12.879,13.111,14.48\C,0,11.802,13.597,15.29\C,0,8.576,26.148
 ,10.664\C,0,8.655,25.06,11.678\O,0,10.003,24.615,11.764\C,0,8.272,25.4
 71,13.087\O,0,7.199,24.657,13.553\C,0,9.586,25.307,13.86\C,0,10.19,24.
 148,13.089\N,0,11.66,24.07,13.205\C,0,12.257,22.88,13.486\O,0,11.583,2
 1.866,13.691\N,0,13.62,22.829,13.497\C,0,14.402,23.914,13.225\O,0,15.6
 25,23.764,13.252\C,0,13.774,25.126,12.933\C,0,14.563,26.358,12.612\C,0
 ,12.385,25.187,12.926\P,0,6.594,24.823,15.016\O,0,5.169,24.424,14.987\
 O,0,6.87,26.189,15.511\O,0,7.409,23.731,15.839\C,0,7.331,22.352,15.433
 \C,0,8.1,21.598,16.461\O,0,9.478,21.902,16.263\C,0,7.766,22.045,17.879
 \O,0,7.036,21.041,18.611\C,0,9.123,22.414,18.469\C,0,10.107,21.743,17.
 523\N,0,11.328,22.556,17.331\C,0,12.534,21.939,17.329\O,0,12.56,20.731
 ,17.579\N,0,13.639,22.639,17.035\C,0,13.56,23.938,16.739\N,0,14.685,24
 .628,16.404\C,0,12.338,24.609,16.736\C,0,11.193,23.878,17.035\P,0,6.50
 9,21.324,20.099\O,0,5.387,20.397,20.396\O,0,6.235,22.774,20.306\O,0,7.
 767,20.924,20.993\C,0,8.216,19.559,21.073\C,0,9.422,19.557,21.977\O,0,
 10.493,20.26,21.319\C,0,9.267,20.267,23.325\O,0,10.088,19.657,24.293\C
 ,0,9.751,21.67,22.99\C,0,10.988,21.226,22.256\N,0,11.599,22.357,21.543
 \C,0,11.037,23.545,21.159\N,0,11.921,24.362,20.566\C,0,13.072,23.653,2
 0.58\C,0,14.37,24.003,20.102\O,0,14.747,25.057,19.585\N,0,15.268,22.98
 3,20.308\C,0,15.023,21.776,20.891\N,0,16.066,20.914,21.038\N,0,13.815,
 21.452,21.35\C,0,12.902,22.429,21.151\P,0,9.477,18.627,25.34\O,0,8.767
 ,17.534,24.627\O,0,8.67,19.409,26.312\O,0,10.807,18.067,26.034\C,0,11.
 688,17.17,25.31\C,0,13.115,17.573,25.593\O,0,13.284,18.804,24.893\C,0,
 13.441,17.879,27.059\O,0,14.341,16.938,27.677\C,0,13.928,19.322,27.025
 \C,0,14.312,19.508,25.568\N,0,14.144,20.932,25.17\C,0,15.199,21.595,24
 .63\O,0,16.257,20.984,24.504\N,0,15.067,22.877,24.257\C,0,13.898,23.51
 ,24.404\N,0,13.771,24.813,24.018\C,0,12.795,22.866,24.967\C,0,12.935,2
 1.54,25.359\P,0,14.658,17.064,29.247\O,0,14.863,15.717,29.825\O,0,13.6
 33,17.912,29.92\O,0,16.033,17.88,29.284\C,0,17.243,17.32,28.742\C,0,18
 .208,18.464,28.758\O,0,17.716,19.428,27.829\C,0,18.23,19.236,30.058\O,
 0,18.978,18.583,31.084\C,0,18.885,20.519,29.578\C,0,18.276,20.693,28.1
 88\N,0,17.164,21.659,28.139\C,0,15.874,21.536,28.58\N,0,15.129,22.614,
 28.308\C,0,15.99,23.436,27.673\C,0,15.765,24.729,27.117\O,0,14.719,25.
 373,27.067\N,0,16.926,25.257,26.604\C,0,18.157,24.666,26.579\N,0,19.20
 8,25.386,26.096\N,0,18.35,23.438,27.053\C,0,17.231,22.893,27.57\H,0,16
 .74341765,31.11463895,23.60650137\H,0,14.73343052,29.80344957,24.26385
 991\H,0,14.94671301,26.58155957,25.87306137\H,0,13.90904866,27.8220469
 4,25.25302606\H,0,20.06364624,29.81364344,23.87400186\H,0,19.03462681,
 30.54563367,21.823246\H,0,18.06509879,31.81663556,22.76093978\H,0,20.2
 759715,32.83376584,21.90186408\H,0,20.91175928,32.98509926,24.47470635
 \H,0,19.71341807,34.72416858,23.81969612\H,0,18.16831944,33.70086681,2
 3.80473936\H,0,18.57170856,35.07731715,25.72252614\H,0,19.97610183,28.
 46881607,21.02973961\H,0,16.42249545,23.72433841,23.34112698\H,0,17.67
 350269,21.9778226,23.94178936\H,0,19.39677475,22.00926048,23.77048533\
 H,0,21.98891076,25.27534924,21.83848032\H,0,22.3550169,26.08996721,19.
 70459569\H,0,21.70729774,27.76105898,20.17641365\H,0,24.05716202,28.10
 311688,20.16917546\H,0,24.31321182,27.25984042,22.80058189\H,0,22.9733
 6712,29.34533834,23.48360847\H,0,24.56289853,29.49444536,22.54240871\H
 ,0,21.55872387,24.26530595,18.66714129\H,0,19.74807364,25.87068873,18.
 08244737\H,0,16.27758891,25.28964396,18.88618781\H,0,17.43541165,26.36
 416276,18.17565571\H,0,20.9317336,21.17776505,20.54436229\H,0,21.71009
 211,20.35967938,18.61912311\H,0,21.66607839,22.04137469,17.84152189\H,
 0,23.87856335,22.11150799,18.10877519\H,0,23.78862193,21.50069027,20.9
 785308\H,0,24.48237984,23.76629732,21.2852243\H,0,25.51360092,22.83090
 405,20.06198168\H,0,21.02511851,20.14090164,15.89482193\H,0,15.0680374
 1,21.70309924,17.46434616\H,0,14.00313955,19.97519139,18.39718218\H,0,
 14.82098677,18.47936157,18.70315452\H,0,18.84134573,17.28642671,17.171
 31408\H,0,20.33415627,16.96517324,15.40931176\H,0,21.5743527,18.093560
 75,16.19883974\H,0,22.15562808,15.73307101,16.85358133\H,0,21.31299286
 ,16.23959649,19.29209443\H,0,22.61495174,18.20750989,19.64506035\H,0,2
 3.4683563,16.86887624,18.68878601\H,0,18.40706573,16.33894859,14.37690
 311\H,0,13.17907088,19.96723873,14.88732353\H,0,17.99265482,20.9945800
 6,13.04387836\H,0,16.69540261,22.14140541,13.08779079\H,0,14.84756955,
 15.92204551,15.88823352\H,0,15.03758045,14.39026888,14.15090287\H,0,16
 .88582454,14.52497279,14.17432558\H,0,16.56467676,12.5510465,15.392178
 57\H,0,16.03843951,13.92556045,17.80382613\H,0,18.44390716,14.27562986
 ,18.04142099\H,0,17.89182138,12.54836788,17.65871047\H,0,12.1968844,14
 .03713529,16.18176636\H,0,11.15586232,12.78445929,15.54919816\H,0,11.8
 8854019,26.1080662,12.70224855\H,0,14.06503711,21.96004576,13.71347285
 \H,0,14.34562613,27.11856558,13.33254743\H,0,15.6079514,26.12940893,12
 .63888276\H,0,14.29907152,26.70614669,11.63525252\H,0,9.7720831,23.213
 91554,13.40162069\H,0,9.36323055,24.98139842,14.85461419\H,0,10.189133
 76,26.1770007,13.70434505\H,0,7.89741974,26.46801623,13.18970474\H,0,7
 .9614066,24.31647092,11.34484432\H,0,8.9399153,25.7872343,9.72468442\H
 ,0,7.55869606,26.46148982,10.55575575\H,0,10.22950789,24.34337766,17.0
 324323\H,0,12.28262269,25.65355698,16.51075775\H,0,15.56915667,24.1614
 2894,16.37994942\H,0,14.62707819,25.60132844,16.1820162\H,0,10.3433339
 ,20.76106892,17.87635202\H,0,9.20838075,21.94320866,19.42606094\H,0,9.
 24680077,23.47315057,18.3808329\H,0,7.09533585,22.87778366,17.91876136
 \H,0,7.86290518,20.55975809,16.35736708\H,0,7.85189859,22.25710181,14.
 50318335\H,0,6.30734774,22.0491917,15.50609715\H,0,10.00805586,23.7940
 6279,21.31437596\H,0,16.20414552,23.14446439,19.99565274\H,0,16.978319
 05,21.17453019,20.72209183\H,0,15.91999178,20.02014293,21.46191171\H,0
 ,11.7406661,20.83461457,22.90808219\H,0,10.0296024,22.17850409,23.8892
 7987\H,0,9.07145555,22.13042448,22.30361189\H,0,8.27797416,20.24199128
 ,23.73255669\H,0,9.59386428,18.51853634,22.16923915\H,0,8.54746453,19.
 27335739,20.0965577\H,0,7.44796057,18.99762055,21.56276377\H,0,12.1165
 3562,21.00853303,25.79781536\H,0,11.86522227,23.3801901,25.09357767\H,
 0,14.55293162,25.29635039,23.62435634\H,0,12.89602082,25.28430291,24.1
 2883769\H,0,15.31641807,19.19726166,25.3692891\H,0,14.81719077,19.3889
 2698,27.61640558\H,0,13.09593957,19.96086591,27.23577427\H,0,12.590379
 41,17.7688276,27.69869263\H,0,13.74498173,16.75656278,25.30759978\H,0,
 11.51652351,17.33705414,24.26712478\H,0,11.55033798,16.19346424,25.725
 12297\H,0,15.50131426,20.67094899,29.08763382\H,0,16.8623422,26.172321
 92,26.20634001\H,0,19.06643527,26.3213621,25.77187475\H,0,20.12096503,
 24.97909482,26.06561873\H,0,19.04997444,21.04865794,27.5404114\H,0,19.
 93365607,20.33882587,29.46504991\H,0,18.5438026,21.32225033,30.1970906
 5\H,0,17.27424083,19.36088851,30.52257215\H,0,19.10184866,19.18451715,
 31.82186085\H,0,19.17338968,18.04613715,28.5622619\H,0,17.05725335,17.
 05965583,27.72091279\H,0,17.59889906,16.57890148,29.4268422\H,0,11.248
 82563,14.3324062,14.74403678\H,0,9.17263256,26.97692922,10.98307042\\V
 ersion=EM64M-G16RevB.01\State=2-A\HF=-2.7345552\S2=5.315287\S2-1=0.\S2
 A=16.502446\RMSD=6.228e-09\Dipole=5.2887664,-6.5827917,-14.7123528\PG=
 C01 [X(C97H117N39O58P9)]\\@

 Writing a WFN file to "DNA-Fragment.wfn"


 A warm smile is the universal language of kindness.
                             -- William Arthur Ward
 Job cpu time:       0 days  1 hours 20 minutes 56.4 seconds.
 Elapsed time:       0 days  0 hours  7 minutes 14.7 seconds.
 File lengths (MBytes):  RWF=    583 Int=      0 D2E=      0 Chk=     68 Scr=      1
 Normal termination of Gaussian 16 at Thu Apr  2 13:15:51 2026.
