 Entering Gaussian System, Link 0=g16
 Initial command:
 /software/gaussian//g16/l1.exe "/software/scratch/Gau-9486.inp" -scrdir="/software/scratch/"
 Entering Link 1 = /software/gaussian//g16/l1.exe PID=      9488.
  
 Copyright (c) 1988-2017, Gaussian, Inc.  All Rights Reserved.
  
 This is part of the Gaussian(R) 16 program.  It is based on
 the Gaussian(R) 09 system (copyright 2009, Gaussian, Inc.),
 the Gaussian(R) 03 system (copyright 2003, Gaussian, Inc.),
 the Gaussian(R) 98 system (copyright 1998, Gaussian, Inc.),
 the Gaussian(R) 94 system (copyright 1995, Gaussian, Inc.),
 the Gaussian 92(TM) system (copyright 1992, Gaussian, Inc.),
 the Gaussian 90(TM) system (copyright 1990, Gaussian, Inc.),
 the Gaussian 88(TM) system (copyright 1988, Gaussian, Inc.),
 the Gaussian 86(TM) system (copyright 1986, Carnegie Mellon
 University), and the Gaussian 82(TM) system (copyright 1983,
 Carnegie Mellon University). Gaussian is a federally registered
 trademark of Gaussian, Inc.
  
 This software contains proprietary and confidential information,
 including trade secrets, belonging to Gaussian, Inc.
  
 This software is provided under written license and may be
 used, copied, transmitted, or stored only in accord with that
 written license.
  
 The following legend is applicable only to US Government
 contracts under FAR:
  
                    RESTRICTED RIGHTS LEGEND
  
 Use, reproduction and disclosure by the US Government is
 subject to restrictions as set forth in subparagraphs (a)
 and (c) of the Commercial Computer Software - Restricted
 Rights clause in FAR 52.227-19.
  
 Gaussian, Inc.
 340 Quinnipiac St., Bldg. 40, Wallingford CT 06492
  
  
 ---------------------------------------------------------------
 Warning -- This program may not be used in any manner that
 competes with the business of Gaussian, Inc. or will provide
 assistance to any competitor of Gaussian, Inc.  The licensee
 of this program is prohibited from giving any competitor of
 Gaussian, Inc. access to this program.  By using this program,
 the user acknowledges that Gaussian, Inc. is engaged in the
 business of creating and licensing software in the field of
 computational chemistry and represents and warrants to the
 licensee that it is not a competitor of Gaussian, Inc. and that
 it will not use this program in any manner prohibited above.
 ---------------------------------------------------------------
  

 Cite this work as:
 Gaussian 16, Revision B.01,
 M. J. Frisch, G. W. Trucks, H. B. Schlegel, G. E. Scuseria, 
 M. A. Robb, J. R. Cheeseman, G. Scalmani, V. Barone, 
 G. A. Petersson, H. Nakatsuji, X. Li, M. Caricato, A. V. Marenich, 
 J. Bloino, B. G. Janesko, R. Gomperts, B. Mennucci, H. P. Hratchian, 
 J. V. Ortiz, A. F. Izmaylov, J. L. Sonnenberg, D. Williams-Young, 
 F. Ding, F. Lipparini, F. Egidi, J. Goings, B. Peng, A. Petrone, 
 T. Henderson, D. Ranasinghe, V. G. Zakrzewski, J. Gao, N. Rega, 
 G. Zheng, W. Liang, M. Hada, M. Ehara, K. Toyota, R. Fukuda, 
 J. Hasegawa, M. Ishida, T. Nakajima, Y. Honda, O. Kitao, H. Nakai, 
 T. Vreven, K. Throssell, J. A. Montgomery, Jr., J. E. Peralta, 
 F. Ogliaro, M. J. Bearpark, J. J. Heyd, E. N. Brothers, K. N. Kudin, 
 V. N. Staroverov, T. A. Keith, R. Kobayashi, J. Normand, 
 K. Raghavachari, A. P. Rendell, J. C. Burant, S. S. Iyengar, 
 J. Tomasi, M. Cossi, J. M. Millam, M. Klene, C. Adamo, R. Cammi, 
 J. W. Ochterski, R. L. Martin, K. Morokuma, O. Farkas, 
 J. B. Foresman, and D. J. Fox, Gaussian, Inc., Wallingford CT, 2016.
 
 ******************************************
 Gaussian 16:  EM64L-G16RevB.01 20-Dec-2017
                 1-Jul-2023 
 ******************************************
 %mem=1600mb
 %NProcShared=4
 Will use up to    4 processors via shared memory.
 %chk=NaCl-3-molecules.chk
 ----------------------------------------------------------------
 # opt freq B3LYP/6-311+G(2d,p) scf=xqc geom=connectivity out=wfn
 ----------------------------------------------------------------
 1/18=20,19=15,26=3,38=1,57=2/1,3;
 2/9=110,12=2,17=6,18=5,40=1/2;
 3/5=4,6=6,7=112,11=2,25=1,30=1,71=1,74=-5/1,2,3;
 4//1;
 5/5=2,8=3,13=1,38=5/2,8;
 6/7=2,8=2,9=2,10=2,28=1/1;
 7//1,2,3,16;
 1/18=20,19=15,26=3/3(2);
 2/9=110/2;
 99/6=100/99;
 2/9=110/2;
 3/5=4,6=6,7=112,11=2,25=1,30=1,71=1,74=-5/1,2,3;
 4/5=5,16=3,69=1/1;
 5/5=2,8=3,13=1,38=5/2,8;
 7//1,2,3,16;
 1/18=20,19=15,26=3/3(-5);
 2/9=110/2;
 6/7=2,8=2,9=2,10=2,19=2,28=1/1;
 99/6=100,9=1/99;
 -------------------
 Title Card Required
 -------------------
 Symbolic Z-matrix:
 Charge =  0 Multiplicity = 1
 Cl                   -0.1826    2.4127   -0.00004 
 Cl                    2.18097  -1.04832  -0.00015 
 Cl                   -1.99834  -1.36451  -0.00005 
 Na                    0.83125  -2.24948   0.00021 
 Na                   -2.36405   0.40496   0.00002 
 Na                    1.53273   1.84473   0.00014 
 
 Add virtual bond connecting atoms Na5        and Cl1        Dist= 5.60D+00.
 Add virtual bond connecting atoms Cl2        and Na6        Dist= 5.60D+00.
 Add virtual bond connecting atoms Na4        and Cl3        Dist= 5.60D+00.

 GradGradGradGradGradGradGradGradGradGradGradGradGradGradGradGradGradGrad
 Berny optimization.
 Initialization pass.
                           ----------------------------
                           !    Initial Parameters    !
                           ! (Angstroms and Degrees)  !
 --------------------------                            --------------------------
 ! Name  Definition              Value          Derivative Info.                !
 --------------------------------------------------------------------------------
 ! R1    R(1,5)                  2.9648         estimate D2E/DX2                !
 ! R2    R(1,6)                  1.8069         estimate D2E/DX2                !
 ! R3    R(2,4)                  1.8068         estimate D2E/DX2                !
 ! R4    R(2,6)                  2.9648         estimate D2E/DX2                !
 ! R5    R(3,4)                  2.9648         estimate D2E/DX2                !
 ! R6    R(3,5)                  1.8069         estimate D2E/DX2                !
 ! A1    A(5,1,6)              119.0541         estimate D2E/DX2                !
 ! A2    A(4,2,6)              119.0372         estimate D2E/DX2                !
 ! A3    A(4,3,5)              119.0446         estimate D2E/DX2                !
 ! A4    A(2,4,3)              120.9659         estimate D2E/DX2                !
 ! A5    A(1,5,3)              120.9482         estimate D2E/DX2                !
 ! A6    A(1,6,2)              120.95           estimate D2E/DX2                !
 ! D1    D(6,1,5,3)             -0.0099         estimate D2E/DX2                !
 ! D2    D(5,1,6,2)              0.014          estimate D2E/DX2                !
 ! D3    D(6,2,4,3)              0.0258         estimate D2E/DX2                !
 ! D4    D(4,2,6,1)             -0.0261         estimate D2E/DX2                !
 ! D5    D(5,3,4,2)             -0.0219         estimate D2E/DX2                !
 ! D6    D(4,3,5,1)              0.0095         estimate D2E/DX2                !
 --------------------------------------------------------------------------------
 Trust Radius=3.00D-01 FncErr=1.00D-07 GrdErr=1.00D-06 EigMax=2.50D+02 EigMin=1.00D-04
 Number of steps in this run=     28 maximum allowed number of steps=    100.
 GradGradGradGradGradGradGradGradGradGradGradGradGradGradGradGradGradGrad

                          Input orientation:                          
 ---------------------------------------------------------------------
 Center     Atomic      Atomic             Coordinates (Angstroms)
 Number     Number       Type             X           Y           Z
 ---------------------------------------------------------------------
      1         17           0       -0.182595    2.412697   -0.000035
      2         17           0        2.180973   -1.048324   -0.000153
      3         17           0       -1.998338   -1.364509   -0.000050
      4         11           0        0.831253   -2.249478    0.000214
      5         11           0       -2.364046    0.404958    0.000017
      6         11           0        1.532731    1.844730    0.000137
 ---------------------------------------------------------------------
                    Distance matrix (angstroms):
                    1          2          3          4          5
     1  Cl   0.000000
     2  Cl   4.191076   0.000000
     3  Cl   4.190967   4.191254   0.000000
     4  Na   4.771139   1.806797   2.964752   0.000000
     5  Na   2.964750   4.771711   1.806864   4.154030   0.000000
     6  Na   1.806912   2.964790   4.771547   4.153867   4.154253
                    6
     6  Na   0.000000
 Stoichiometry    Cl3Na3
 Framework group  C1[X(Cl3Na3)]
 Deg. of freedom    12
 Full point group                 C1      NOp   1
 Largest Abelian subgroup         C1      NOp   1
 Largest concise Abelian subgroup C1      NOp   1
                         Standard orientation:                         
 ---------------------------------------------------------------------
 Center     Atomic      Atomic             Coordinates (Angstroms)
 Number     Number       Type             X           Y           Z
 ---------------------------------------------------------------------
      1         17           0       -0.183245    2.412648   -0.000035
      2         17           0        2.181256   -1.047736   -0.000153
      3         17           0       -1.997970   -1.365048   -0.000050
      4         11           0        0.831859   -2.249254    0.000214
      5         11           0       -2.364155    0.404321    0.000017
      6         11           0        1.532234    1.845143    0.000137
 ---------------------------------------------------------------------
 Rotational constants (GHZ):           0.9998946           0.9997190           0.4999034
 Standard basis: 6-311+G(2d,p) (5D, 7F)
 There are   222 symmetry adapted cartesian basis functions of A   symmetry.
 There are   210 symmetry adapted basis functions of A   symmetry.
   210 basis functions,   345 primitive gaussians,   222 cartesian basis functions
    42 alpha electrons       42 beta electrons
       nuclear repulsion energy       482.3618601263 Hartrees.
 NAtoms=    6 NActive=    6 NUniq=    6 SFac= 1.00D+00 NAtFMM=   60 NAOKFM=F Big=F
 Integral buffers will be    131072 words long.
 Raffenetti 2 integral format.
 Two-electron integral symmetry is turned on.
 One-electron integrals computed using PRISM.
 NBasis=   210 RedAO= T EigKep=  3.65D-04  NBF=   210
 NBsUse=   210 1.00D-06 EigRej= -1.00D+00 NBFU=   210
 ExpMin= 7.60D-03 ExpMax= 1.06D+05 ExpMxC= 3.62D+03 IAcc=3 IRadAn=         5 AccDes= 0.00D+00
 Harris functional with IExCor=  402 and IRadAn=       5 diagonalized for initial guess.
 HarFok:  IExCor=  402 AccDes= 0.00D+00 IRadAn=         5 IDoV= 1 UseB2=F ITyADJ=14
 ICtDFT=  3500011 ScaDFX=  1.000000  1.000000  1.000000  1.000000
 FoFCou: FMM=F IPFlag=           0 FMFlag=      100000 FMFlg1=           0
         NFxFlg=           0 DoJE=T BraDBF=F KetDBF=T FulRan=T
         wScrn=  0.000000 ICntrl=       500 IOpCl=  0 I1Cent=   200000004 NGrid=           0
         NMat0=    1 NMatS0=      1 NMatT0=    0 NMatD0=    1 NMtDS0=    0 NMtDT0=    0
 Petite list used in FoFCou.
 Requested convergence on RMS density matrix=1.00D-08 within  32 cycles.
 Requested convergence on MAX density matrix=1.00D-06.
 Requested convergence on             energy=1.00D-06.
 No special actions if energy rises.
 SCF Done:  E(RB3LYP) =  -1867.61631546     A.U. after   10 cycles
            NFock= 10  Conv=0.90D-09     -V/T= 2.0012
 QCSCF skips out because SCF is already converged.

 **********************************************************************

            Population analysis using the SCF Density.

 **********************************************************************

 Orbital symmetries:
       Occupied  (A) (A) (A) (A) (A) (A) (A) (A) (A) (A) (A) (A)
                 (A) (A) (A) (A) (A) (A) (A) (A) (A) (A) (A) (A)
                 (A) (A) (A) (A) (A) (A) (A) (A) (A) (A) (A) (A)
                 (A) (A) (A) (A) (A) (A)
       Virtual   (A) (A) (A) (A) (A) (A) (A) (A) (A) (A) (A) (A)
                 (A) (A) (A) (A) (A) (A) (A) (A) (A) (A) (A) (A)
                 (A) (A) (A) (A) (A) (A) (A) (A) (A) (A) (A) (A)
                 (A) (A) (A) (A) (A) (A) (A) (A) (A) (A) (A) (A)
                 (A) (A) (A) (A) (A) (A) (A) (A) (A) (A) (A) (A)
                 (A) (A) (A) (A) (A) (A) (A) (A) (A) (A) (A) (A)
                 (A) (A) (A) (A) (A) (A) (A) (A) (A) (A) (A) (A)
                 (A) (A) (A) (A) (A) (A) (A) (A) (A) (A) (A) (A)
                 (A) (A) (A) (A) (A) (A) (A) (A) (A) (A) (A) (A)
                 (A) (A) (A) (A) (A) (A) (A) (A) (A) (A) (A) (A)
                 (A) (A) (A) (A) (A) (A) (A) (A) (A) (A) (A) (A)
                 (A) (A) (A) (A) (A) (A) (A) (A) (A) (A) (A) (A)
                 (A) (A) (A) (A) (A) (A) (A) (A) (A) (A) (A) (A)
                 (A) (A) (A) (A) (A) (A) (A) (A) (A) (A) (A) (A)
 The electronic state is 1-A.
 Alpha  occ. eigenvalues -- -101.45269-101.45269-101.45268 -38.42216 -38.42216
 Alpha  occ. eigenvalues --  -38.42215  -9.37585  -9.37585  -9.37585  -7.13419
 Alpha  occ. eigenvalues --   -7.13419  -7.13419  -7.13272  -7.13272  -7.13272
 Alpha  occ. eigenvalues --   -7.13263  -7.13263  -7.13262  -2.20256  -2.20255
 Alpha  occ. eigenvalues --   -2.20255  -1.15782  -1.15781  -1.15761  -1.13545
 Alpha  occ. eigenvalues --   -1.13543  -1.13542  -1.13475  -1.13459  -1.13459
 Alpha  occ. eigenvalues --   -0.73176  -0.72883  -0.72882  -0.29489  -0.28982
 Alpha  occ. eigenvalues --   -0.28982  -0.28350  -0.27967  -0.27967  -0.26927
 Alpha  occ. eigenvalues --   -0.26868  -0.26868
 Alpha virt. eigenvalues --   -0.03928  -0.01930  -0.01929   0.00338   0.00983
 Alpha virt. eigenvalues --    0.01165   0.01167   0.01338   0.01339   0.01409
 Alpha virt. eigenvalues --    0.01410   0.01999   0.02284   0.02933   0.03339
 Alpha virt. eigenvalues --    0.03340   0.03682   0.03682   0.04091   0.04092
 Alpha virt. eigenvalues --    0.04127   0.05350   0.05510   0.05510   0.07953
 Alpha virt. eigenvalues --    0.09242   0.09243   0.09821   0.09898   0.10755
 Alpha virt. eigenvalues --    0.10755   0.11608   0.11608   0.11869   0.12207
 Alpha virt. eigenvalues --    0.12207   0.13758   0.13758   0.13764   0.14458
 Alpha virt. eigenvalues --    0.15141   0.16047   0.16048   0.18107   0.18107
 Alpha virt. eigenvalues --    0.19986   0.20323   0.20323   0.20332   0.22324
 Alpha virt. eigenvalues --    0.23788   0.23790   0.24442   0.27515   0.27515
 Alpha virt. eigenvalues --    0.27618   0.29025   0.29026   0.32461   0.32463
 Alpha virt. eigenvalues --    0.33049   0.35281   0.35282   0.41323   0.41323
 Alpha virt. eigenvalues --    0.41328   0.42209   0.42211   0.44948   0.46810
 Alpha virt. eigenvalues --    0.49858   0.49859   0.51485   0.51485   0.52636
 Alpha virt. eigenvalues --    0.54762   0.55076   0.55076   0.55417   0.55418
 Alpha virt. eigenvalues --    0.59264   0.59854   0.61881   0.61882   0.64113
 Alpha virt. eigenvalues --    0.64115   0.64321   0.65748   0.65959   0.65963
 Alpha virt. eigenvalues --    0.71213   0.71215   0.71516   0.75034   0.75035
 Alpha virt. eigenvalues --    0.79017   0.87575   0.91156   0.91156   0.93742
 Alpha virt. eigenvalues --    0.93920   0.93921   1.02041   1.03128   1.03130
 Alpha virt. eigenvalues --    1.05126   1.05128   1.07157   1.08653   1.14536
 Alpha virt. eigenvalues --    1.14540   1.17133   1.17136   1.18952   2.18108
 Alpha virt. eigenvalues --    2.19134   2.19138   2.34573   2.34574   2.34630
 Alpha virt. eigenvalues --    2.35438   2.40539   2.40540   2.43588   2.43589
 Alpha virt. eigenvalues --    2.47281   2.48042   2.48043   2.52636   2.52834
 Alpha virt. eigenvalues --    2.52839   2.54431   2.54520   2.54520   2.56005
 Alpha virt. eigenvalues --    2.59883   2.59886   2.61794   2.92657   2.92658
 Alpha virt. eigenvalues --    2.98448   4.47203   4.47203   4.48141   4.51371
 Alpha virt. eigenvalues --    4.51373   4.61754   4.73118   4.76575   4.76581
 Alpha virt. eigenvalues --    9.82751   9.83167   9.83168  25.98049  25.98056
 Alpha virt. eigenvalues --   26.01169  26.04968  26.21688  26.21688  26.74706
 Alpha virt. eigenvalues --   26.75084  26.75089  96.81444  96.81457  96.84893
 Alpha virt. eigenvalues --  215.83698 215.84790 215.84792
          Condensed to atoms (all electrons):
               1          2          3          4          5          6
     1  Cl  17.775163  -0.021226  -0.021229  -0.006107   0.099933  -0.113431
     2  Cl  -0.021226  17.775343  -0.021208  -0.113475  -0.006117   0.099923
     3  Cl  -0.021229  -0.021208  17.775212   0.099941  -0.113464  -0.006118
     4  Na  -0.006107  -0.113475   0.099941  10.362577  -0.028073  -0.028066
     5  Na   0.099933  -0.006117  -0.113464  -0.028073  10.362630  -0.028069
     6  Na  -0.113431   0.099923  -0.006118  -0.028066  -0.028069  10.362648
 Mulliken charges:
               1
     1  Cl  -0.713103
     2  Cl  -0.713240
     3  Cl  -0.713134
     4  Na   0.713204
     5  Na   0.713160
     6  Na   0.713114
 Sum of Mulliken charges =   0.00000
 Mulliken charges with hydrogens summed into heavy atoms:
               1
     1  Cl  -0.713103
     2  Cl  -0.713240
     3  Cl  -0.713134
     4  Na   0.713204
     5  Na   0.713160
     6  Na   0.713114
 Electronic spatial extent (au):  <R**2>=           1867.6866
 Charge=              0.0000 electrons
 Dipole moment (field-independent basis, Debye):
    X=             -0.0006    Y=              0.0013    Z=              0.0020  Tot=              0.0025
 Quadrupole moment (field-independent basis, Debye-Ang):
   XX=            -54.4482   YY=            -54.4504   ZZ=            -57.1855
   XY=              0.0016   XZ=              0.0022   YZ=             -0.0015
 Traceless Quadrupole moment (field-independent basis, Debye-Ang):
   XX=              0.9132   YY=              0.9110   ZZ=             -1.8241
   XY=              0.0016   XZ=              0.0022   YZ=             -0.0015
 Octapole moment (field-independent basis, Debye-Ang**2):
  XXX=            -46.0306  YYY=            -63.2007  ZZZ=              0.0060  XYY=             46.0131
  XXY=             63.2335  XXZ=              0.0062  XZZ=             -0.0005  YZZ=              0.0012
  YYZ=              0.0094  XYZ=             -0.0007
 Hexadecapole moment (field-independent basis, Debye-Ang**3):
 XXXX=          -1041.8435 YYYY=          -1041.7104 ZZZZ=            -75.1334 XXXY=              0.0090
 XXXZ=              0.0106 YYYX=              0.0202 YYYZ=             -0.0123 ZZZX=              0.0063
 ZZZY=             -0.0042 XXYY=           -347.2586 XXZZ=           -189.8581 YYZZ=           -189.8315
 XXYZ=             -0.0012 YYXZ=              0.0102 ZZXY=              0.0017
 N-N= 4.823618601263D+02 E-N=-5.424438513779D+03  KE= 1.865418146729D+03
 Calling FoFJK, ICntrl=      2127 FMM=F ISym2X=0 I1Cent= 0 IOpClX= 0 NMat=1 NMatS=1 NMatT=0.
 ***** Axes restored to original set *****
 -------------------------------------------------------------------
 Center     Atomic                   Forces (Hartrees/Bohr)
 Number     Number              X              Y              Z
 -------------------------------------------------------------------
      1       17          -0.245068343    0.077144100   -0.000022226
      2       17           0.189476245    0.173682613   -0.000048146
      3       17           0.055719828   -0.250859386   -0.000006932
      4       11          -0.196580827   -0.162712594    0.000048119
      5       11          -0.042662616    0.251525221    0.000007939
      6       11           0.239115713   -0.088779954    0.000021246
 -------------------------------------------------------------------
 Cartesian Forces:  Max     0.251525221 RMS     0.147831433

 GradGradGradGradGradGradGradGradGradGradGradGradGradGradGradGradGradGrad
 Berny optimization.
 FormGI is forming the generalized inverse of G from B-inverse, IUseBI=4.
 Internal  Forces:  Max     0.252284832 RMS     0.103035764
 Search for a local minimum.
 Step number   1 out of a maximum of   28
 All quantities printed in internal units (Hartrees-Bohrs-Radians)
 Mixed Optimization -- RFO/linear search
 Second derivative matrix not updated -- first step.
 The second derivative matrix:
                          R1        R2        R3        R4        R5
           R1           0.03927
           R2           0.00000   0.71017
           R3           0.00000   0.00000   0.71052
           R4           0.00000   0.00000   0.00000   0.03927
           R5           0.00000   0.00000   0.00000   0.00000   0.03927
           R6           0.00000   0.00000   0.00000   0.00000   0.00000
           A1           0.00000   0.00000   0.00000   0.00000   0.00000
           A2           0.00000   0.00000   0.00000   0.00000   0.00000
           A3           0.00000   0.00000   0.00000   0.00000   0.00000
           A4           0.00000   0.00000   0.00000   0.00000   0.00000
           A5           0.00000   0.00000   0.00000   0.00000   0.00000
           A6           0.00000   0.00000   0.00000   0.00000   0.00000
           D1           0.00000   0.00000   0.00000   0.00000   0.00000
           D2           0.00000   0.00000   0.00000   0.00000   0.00000
           D3           0.00000   0.00000   0.00000   0.00000   0.00000
           D4           0.00000   0.00000   0.00000   0.00000   0.00000
           D5           0.00000   0.00000   0.00000   0.00000   0.00000
           D6           0.00000   0.00000   0.00000   0.00000   0.00000
                          R6        A1        A2        A3        A4
           R6           0.71032
           A1           0.00000   0.25000
           A2           0.00000   0.00000   0.25000
           A3           0.00000   0.00000   0.00000   0.25000
           A4           0.00000   0.00000   0.00000   0.00000   0.25000
           A5           0.00000   0.00000   0.00000   0.00000   0.00000
           A6           0.00000   0.00000   0.00000   0.00000   0.00000
           D1           0.00000   0.00000   0.00000   0.00000   0.00000
           D2           0.00000   0.00000   0.00000   0.00000   0.00000
           D3           0.00000   0.00000   0.00000   0.00000   0.00000
           D4           0.00000   0.00000   0.00000   0.00000   0.00000
           D5           0.00000   0.00000   0.00000   0.00000   0.00000
           D6           0.00000   0.00000   0.00000   0.00000   0.00000
                          A5        A6        D1        D2        D3
           A5           0.25000
           A6           0.00000   0.25000
           D1           0.00000   0.00000   0.00230
           D2           0.00000   0.00000   0.00000   0.09277
           D3           0.00000   0.00000   0.00000   0.00000   0.09279
           D4           0.00000   0.00000   0.00000   0.00000   0.00000
           D5           0.00000   0.00000   0.00000   0.00000   0.00000
           D6           0.00000   0.00000   0.00000   0.00000   0.00000
                          D4        D5        D6
           D4           0.00230
           D5           0.00000   0.00230
           D6           0.00000   0.00000   0.09278
 ITU=  0
     Eigenvalues ---    0.03927   0.04027   0.04419   0.04420   0.04754
     Eigenvalues ---    0.04754   0.25000   0.25000   0.25000   0.69956
     Eigenvalues ---    0.69976   0.71034
 RFO step:  Lambda=-2.08538913D-01 EMin= 3.92673085D-02
 Linear search not attempted -- first point.
 Maximum step size (   0.300) exceeded in Quadratic search.
    -- Step size scaled by   0.627
 Iteration  1 RMS(Cart)=  0.05456362 RMS(Int)=  0.00008203
 Iteration  2 RMS(Cart)=  0.00010261 RMS(Int)=  0.00000009
 Iteration  3 RMS(Cart)=  0.00000001 RMS(Int)=  0.00000009
 Variable       Old X    -DE/DX   Delta X   Delta X   Delta X     New X
                                 (Linear)    (Quad)   (Total)
    R1        5.60257  -0.00744   0.00000  -0.01882  -0.01882   5.58375
    R2        3.41457   0.25217   0.00000   0.17204   0.17204   3.58660
    R3        3.41435   0.25228   0.00000   0.17205   0.17205   3.58640
    R4        5.60264  -0.00743   0.00000  -0.01880  -0.01880   5.58384
    R5        5.60257  -0.00744   0.00000  -0.01882  -0.01882   5.58375
    R6        3.41448   0.25222   0.00000   0.17204   0.17204   3.58652
    A1        2.07789  -0.00355   0.00000  -0.00487  -0.00487   2.07302
    A2        2.07759  -0.00358   0.00000  -0.00489  -0.00489   2.07270
    A3        2.07772  -0.00358   0.00000  -0.00489  -0.00489   2.07283
    A4        2.11125   0.00357   0.00000   0.00490   0.00490   2.11615
    A5        2.11094   0.00357   0.00000   0.00488   0.00488   2.11582
    A6        2.11097   0.00357   0.00000   0.00488   0.00488   2.11585
    D1       -0.00017   0.00000   0.00000   0.00000   0.00000  -0.00017
    D2        0.00024   0.00000   0.00000   0.00000   0.00000   0.00024
    D3        0.00045   0.00000   0.00000   0.00000   0.00000   0.00045
    D4       -0.00046   0.00001   0.00000   0.00001   0.00001  -0.00045
    D5       -0.00038   0.00000   0.00000   0.00001   0.00001  -0.00038
    D6        0.00017   0.00000   0.00000   0.00000   0.00000   0.00017
         Item               Value     Threshold  Converged?
 Maximum Force            0.252285     0.000450     NO 
 RMS     Force            0.103036     0.000300     NO 
 Maximum Displacement     0.095793     0.001800     NO 
 RMS     Displacement     0.054565     0.001200     NO 
 Predicted change in Energy=-9.912821D-02
 GradGradGradGradGradGradGradGradGradGradGradGradGradGradGradGradGradGrad

                          Input orientation:                          
 ---------------------------------------------------------------------
 Center     Atomic      Atomic             Coordinates (Angstroms)
 Number     Number       Type             X           Y           Z
 ---------------------------------------------------------------------
      1         17           0       -0.219812    2.449596   -0.000037
      2         17           0        2.231567   -1.034551   -0.000157
      3         17           0       -2.011706   -1.415200   -0.000050
      4         11           0        0.810020   -2.291932    0.000218
      5         11           0       -2.390222    0.444574    0.000017
      6         11           0        1.580131    1.847587    0.000138
 ---------------------------------------------------------------------
                    Distance matrix (angstroms):
                    1          2          3          4          5
     1  Cl   0.000000
     2  Cl   4.260111   0.000000
     3  Cl   4.259993   4.260313   0.000000
     4  Na   4.852076   1.897842   2.954792   0.000000
     5  Na   2.954791   4.852705   1.897903   4.210702   0.000000
     6  Na   1.897949   2.954842   4.852533   4.210545   4.210955
                    6
     6  Na   0.000000
 Stoichiometry    Cl3Na3
 Framework group  C1[X(Cl3Na3)]
 Deg. of freedom    12
 Full point group                 C1      NOp   1
 Largest Abelian subgroup         C1      NOp   1
 Largest concise Abelian subgroup C1      NOp   1
                         Standard orientation:                         
 ---------------------------------------------------------------------
 Center     Atomic      Atomic             Coordinates (Angstroms)
 Number     Number       Type             X           Y           Z
 ---------------------------------------------------------------------
      1         17           0       -0.191915    2.451941   -0.000037
      2         17           0        2.219646   -1.059885   -0.000157
      3         17           0       -2.027686   -1.392208   -0.000049
      4         11           0        0.783878   -2.301002    0.000219
      5         11           0       -2.385007    0.471755    0.000018
      6         11           0        1.601059    1.829482    0.000139
 ---------------------------------------------------------------------
 Rotational constants (GHZ):           0.9698701           0.9696859           0.4848890
 Standard basis: 6-311+G(2d,p) (5D, 7F)
 There are   222 symmetry adapted cartesian basis functions of A   symmetry.
 There are   210 symmetry adapted basis functions of A   symmetry.
   210 basis functions,   345 primitive gaussians,   222 cartesian basis functions
    42 alpha electrons       42 beta electrons
       nuclear repulsion energy       471.3831004210 Hartrees.
 NAtoms=    6 NActive=    6 NUniq=    6 SFac= 1.00D+00 NAtFMM=   60 NAOKFM=F Big=F
 Integral buffers will be    131072 words long.
 Raffenetti 2 integral format.
 Two-electron integral symmetry is turned on.
 One-electron integrals computed using PRISM.
 NBasis=   210 RedAO= T EigKep=  4.14D-04  NBF=   210
 NBsUse=   210 1.00D-06 EigRej= -1.00D+00 NBFU=   210
 Initial guess from the checkpoint file:  "NaCl-3-molecules.chk"
 B after Tr=     0.000000    0.000000    0.000000
         Rot=    0.999991    0.000000    0.000000    0.004319 Ang=  -0.49 deg.
 ExpMin= 7.60D-03 ExpMax= 1.06D+05 ExpMxC= 3.62D+03 IAcc=3 IRadAn=         5 AccDes= 0.00D+00
 Harris functional with IExCor=  402 and IRadAn=       5 diagonalized for initial guess.
 HarFok:  IExCor=  402 AccDes= 0.00D+00 IRadAn=         5 IDoV= 1 UseB2=F ITyADJ=14
 ICtDFT=  3500011 ScaDFX=  1.000000  1.000000  1.000000  1.000000
 FoFCou: FMM=F IPFlag=           0 FMFlag=      100000 FMFlg1=           0
         NFxFlg=           0 DoJE=T BraDBF=F KetDBF=T FulRan=T
         wScrn=  0.000000 ICntrl=       500 IOpCl=  0 I1Cent=   200000004 NGrid=           0
         NMat0=    1 NMatS0=      1 NMatT0=    0 NMatD0=    1 NMtDS0=    0 NMtDT0=    0
 Petite list used in FoFCou.
 Requested convergence on RMS density matrix=1.00D-08 within  32 cycles.
 Requested convergence on MAX density matrix=1.00D-06.
 Requested convergence on             energy=1.00D-06.
 No special actions if energy rises.
 SCF Done:  E(RB3LYP) =  -1867.72604388     A.U. after    8 cycles
            NFock=  8  Conv=0.91D-08     -V/T= 2.0016
 QCSCF skips out because SCF is already converged.
 Calling FoFJK, ICntrl=      2127 FMM=F ISym2X=0 I1Cent= 0 IOpClX= 0 NMat=1 NMatS=1 NMatT=0.
 ***** Axes restored to original set *****
 -------------------------------------------------------------------
 Center     Atomic                   Forces (Hartrees/Bohr)
 Number     Number              X              Y              Z
 -------------------------------------------------------------------
      1       17          -0.171872527    0.053313727   -0.000014438
      2       17           0.132207724    0.122204814   -0.000031598
      3       17           0.039756507   -0.175533973   -0.000003788
      4       11          -0.139578230   -0.110593768    0.000031552
      5       11          -0.026011707    0.176110133    0.000004830
      6       11           0.165498232   -0.065500932    0.000013442
 -------------------------------------------------------------------
 Cartesian Forces:  Max     0.176110133 RMS     0.103352865

 GradGradGradGradGradGradGradGradGradGradGradGradGradGradGradGradGradGrad
 Berny optimization.
 Using GEDIIS/GDIIS optimizer.
 FormGI is forming the generalized inverse of G from B-inverse, IUseBI=4.
 Internal  Forces:  Max     0.174986433 RMS     0.071525746
 Search for a local minimum.
 Step number   2 out of a maximum of   28
 All quantities printed in internal units (Hartrees-Bohrs-Radians)
 Mixed Optimization -- RFO/linear search
 Update second derivatives using D2CorX and points    1    2
 DE= -1.10D-01 DEPred=-9.91D-02 R= 1.11D+00
 TightC=F SS=  1.41D+00  RLast= 3.00D-01 DXNew= 5.0454D-01 9.0000D-01
 Trust test= 1.11D+00 RLast= 3.00D-01 DXMaxT set to 5.05D-01
 The second derivative matrix:
                          R1        R2        R3        R4        R5
           R1           0.03926
           R2           0.00215   0.62362
           R3           0.00216  -0.08663   0.62380
           R4          -0.00001   0.00216   0.00216   0.03926
           R5          -0.00001   0.00215   0.00215  -0.00001   0.03926
           R6           0.00216  -0.08657  -0.08665   0.00216   0.00215
           A1          -0.00001   0.00314   0.00314  -0.00001  -0.00001
           A2          -0.00001   0.00313   0.00314  -0.00001  -0.00001
           A3          -0.00001   0.00314   0.00314  -0.00001  -0.00001
           A4           0.00001  -0.00314  -0.00314   0.00001   0.00001
           A5           0.00001  -0.00314  -0.00314   0.00001   0.00001
           A6           0.00001  -0.00313  -0.00313   0.00001   0.00001
           D1           0.00000   0.00000   0.00000   0.00000   0.00000
           D2           0.00000   0.00000   0.00000   0.00000   0.00000
           D3           0.00000   0.00000   0.00000   0.00000   0.00000
           D4           0.00000   0.00000   0.00000   0.00000   0.00000
           D5           0.00000   0.00000   0.00000   0.00000   0.00000
           D6           0.00000   0.00000   0.00000   0.00000   0.00000
                          R6        A1        A2        A3        A4
           R6           0.62373
           A1           0.00314   0.24998
           A2           0.00313  -0.00002   0.24998
           A3           0.00314  -0.00002  -0.00002   0.24998
           A4          -0.00314   0.00002   0.00002   0.00002   0.24998
           A5          -0.00314   0.00002   0.00002   0.00002  -0.00002
           A6          -0.00313   0.00002   0.00002   0.00002  -0.00002
           D1           0.00000   0.00000   0.00000   0.00000   0.00000
           D2           0.00000   0.00000   0.00000   0.00000   0.00000
           D3           0.00000   0.00000   0.00000   0.00000   0.00000
           D4           0.00000   0.00000   0.00000   0.00000   0.00000
           D5           0.00000   0.00000   0.00000   0.00000   0.00000
           D6           0.00000   0.00000   0.00000   0.00000   0.00000
                          A5        A6        D1        D2        D3
           A5           0.24998
           A6          -0.00002   0.24998
           D1           0.00000   0.00000   0.00230
           D2           0.00000   0.00000   0.00000   0.09277
           D3           0.00000   0.00000   0.00000   0.00000   0.09279
           D4           0.00000   0.00000   0.00000   0.00000   0.00000
           D5           0.00000   0.00000   0.00000   0.00000   0.00000
           D6           0.00000   0.00000   0.00000   0.00000   0.00000
                          D4        D5        D6
           D4           0.00230
           D5           0.00000   0.00230
           D6           0.00000   0.00000   0.09278
 ITU=  1  0
 Use linear search instead of GDIIS.
 Linear search step of   0.600 exceeds DXMaxT=   0.505 but not scaled.
 Quartic linear search produced a step of  2.00000.
 Iteration  1 RMS(Cart)=  0.06170028 RMS(Int)=  0.05880730
 Iteration  2 RMS(Cart)=  0.04800316 RMS(Int)=  0.00000052
 Iteration  3 RMS(Cart)=  0.00000013 RMS(Int)=  0.00000050
 Variable       Old X    -DE/DX   Delta X   Delta X   Delta X     New X
                                 (Linear)    (Quad)   (Total)
    R1        5.58375  -0.00781  -0.03764   0.00000  -0.03764   5.54611
    R2        3.58660   0.17490   0.34407   0.00000   0.34407   3.93068
    R3        3.58640   0.17499   0.34410   0.00000   0.34410   3.93050
    R4        5.58384  -0.00781  -0.03760   0.00000  -0.03760   5.54624
    R5        5.58375  -0.00782  -0.03764   0.00000  -0.03764   5.54610
    R6        3.58652   0.17493   0.34408   0.00000   0.34408   3.93060
    A1        2.07302  -0.00396  -0.00973   0.00000  -0.00973   2.06328
    A2        2.07270  -0.00398  -0.00978   0.00000  -0.00978   2.06292
    A3        2.07283  -0.00398  -0.00978   0.00000  -0.00978   2.06305
    A4        2.11615   0.00397   0.00979   0.00000   0.00979   2.12594
    A5        2.11582   0.00397   0.00975   0.00000   0.00975   2.12557
    A6        2.11585   0.00397   0.00975   0.00000   0.00975   2.12560
    D1       -0.00017   0.00000   0.00001   0.00000   0.00001  -0.00016
    D2        0.00024   0.00000   0.00000   0.00000   0.00000   0.00024
    D3        0.00045   0.00000   0.00000   0.00000   0.00000   0.00044
    D4       -0.00045   0.00000   0.00001   0.00000   0.00001  -0.00043
    D5       -0.00038   0.00000   0.00001   0.00000   0.00001  -0.00036
    D6        0.00017   0.00000   0.00000   0.00000   0.00000   0.00017
         Item               Value     Threshold  Converged?
 Maximum Force            0.174986     0.000450     NO 
 RMS     Force            0.071526     0.000300     NO 
 Maximum Displacement     0.191984     0.001800     NO 
 RMS     Displacement     0.109122     0.001200     NO 
 Predicted change in Energy=-1.019789D-01
 GradGradGradGradGradGradGradGradGradGradGradGradGradGradGradGradGradGrad

                          Input orientation:                          
 ---------------------------------------------------------------------
 Center     Atomic      Atomic             Coordinates (Angstroms)
 Number     Number       Type             X           Y           Z
 ---------------------------------------------------------------------
      1         17           0       -0.294209    2.523877   -0.000041
      2         17           0        2.333157   -1.007280   -0.000164
      3         17           0       -2.038881   -1.516794   -0.000048
      4         11           0        0.767309   -2.376306    0.000226
      5         11           0       -2.441993    0.523752    0.000017
      6         11           0        1.674595    1.852825    0.000140
 ---------------------------------------------------------------------
                    Distance matrix (angstroms):
                    1          2          3          4          5
     1  Cl   0.000000
     2  Cl   4.401377   0.000000
     3  Cl   4.401239   4.401628   0.000000
     4  Na   5.013843   2.079931   2.934871   0.000000
     5  Na   2.934873   5.014591   2.079982   4.325501   0.000000
     6  Na   2.080024   2.934945   5.014403   4.325358   4.325822
                    6
     6  Na   0.000000
 Stoichiometry    Cl3Na3
 Framework group  C1[X(Cl3Na3)]
 Deg. of freedom    12
 Full point group                 C1      NOp   1
 Largest Abelian subgroup         C1      NOp   1
 Largest concise Abelian subgroup C1      NOp   1
                         Standard orientation:                         
 ---------------------------------------------------------------------
 Center     Atomic      Atomic             Coordinates (Angstroms)
 Number     Number       Type             X           Y           Z
 ---------------------------------------------------------------------
      1         17           0       -0.212109    2.532103   -0.000040
      2         17           0        2.299220   -1.082499   -0.000163
      3         17           0       -2.087057   -1.449790   -0.000047
      4         11           0        0.689747   -2.399963    0.000227
      5         11           0       -2.423702    0.602769    0.000018
      6         11           0        1.733869    1.797480    0.000141
 ---------------------------------------------------------------------
 Rotational constants (GHZ):           0.9126811           0.9124807           0.4562905
 Standard basis: 6-311+G(2d,p) (5D, 7F)
 There are   222 symmetry adapted cartesian basis functions of A   symmetry.
 There are   210 symmetry adapted basis functions of A   symmetry.
   210 basis functions,   345 primitive gaussians,   222 cartesian basis functions
    42 alpha electrons       42 beta electrons
       nuclear repulsion energy       451.7293634106 Hartrees.
 NAtoms=    6 NActive=    6 NUniq=    6 SFac= 1.00D+00 NAtFMM=   60 NAOKFM=F Big=F
 Integral buffers will be    131072 words long.
 Raffenetti 2 integral format.
 Two-electron integral symmetry is turned on.
 One-electron integrals computed using PRISM.
 NBasis=   210 RedAO= T EigKep=  5.09D-04  NBF=   210
 NBsUse=   210 1.00D-06 EigRej= -1.00D+00 NBFU=   210
 Initial guess from the checkpoint file:  "NaCl-3-molecules.chk"
 B after Tr=     0.000000    0.000000    0.000000
         Rot=    0.999971    0.000000    0.000000    0.007678 Ang=   0.88 deg.
 ExpMin= 7.60D-03 ExpMax= 1.06D+05 ExpMxC= 3.62D+03 IAcc=3 IRadAn=         5 AccDes= 0.00D+00
 Harris functional with IExCor=  402 and IRadAn=       5 diagonalized for initial guess.
 HarFok:  IExCor=  402 AccDes= 0.00D+00 IRadAn=         5 IDoV= 1 UseB2=F ITyADJ=14
 ICtDFT=  3500011 ScaDFX=  1.000000  1.000000  1.000000  1.000000
 FoFCou: FMM=F IPFlag=           0 FMFlag=      100000 FMFlg1=           0
         NFxFlg=           0 DoJE=T BraDBF=F KetDBF=T FulRan=T
         wScrn=  0.000000 ICntrl=       500 IOpCl=  0 I1Cent=   200000004 NGrid=           0
         NMat0=    1 NMatS0=      1 NMatT0=    0 NMatD0=    1 NMtDS0=    0 NMtDT0=    0
 Petite list used in FoFCou.
 Requested convergence on RMS density matrix=1.00D-08 within  32 cycles.
 Requested convergence on MAX density matrix=1.00D-06.
 Requested convergence on             energy=1.00D-06.
 No special actions if energy rises.
 SCF Done:  E(RB3LYP) =  -1867.85254805     A.U. after    9 cycles
            NFock=  9  Conv=0.52D-08     -V/T= 2.0021
 QCSCF skips out because SCF is already converged.
 Calling FoFJK, ICntrl=      2127 FMM=F ISym2X=0 I1Cent= 0 IOpClX= 0 NMat=1 NMatS=1 NMatT=0.
 ***** Axes restored to original set *****
 -------------------------------------------------------------------
 Center     Atomic                   Forces (Hartrees/Bohr)
 Number     Number              X              Y              Z
 -------------------------------------------------------------------
      1       17          -0.080856201    0.022752440   -0.000005233
      2       17           0.060161098    0.058670126   -0.000011867
      3       17           0.020728232   -0.081414257   -0.000000166
      4       11          -0.068321292   -0.045756547    0.000011803
      5       11          -0.005463394    0.082021295    0.000001283
      6       11           0.073751557   -0.036273058    0.000004181
 -------------------------------------------------------------------
 Cartesian Forces:  Max     0.082021295 RMS     0.047986520

 GradGradGradGradGradGradGradGradGradGradGradGradGradGradGradGradGradGrad
 Berny optimization.
 Using GEDIIS/GDIIS optimizer.
 FormGI is forming the generalized inverse of G from B-inverse, IUseBI=4.
 Internal  Forces:  Max     0.078372071 RMS     0.032288691
 Search for a local minimum.
 Step number   3 out of a maximum of   28
 All quantities printed in internal units (Hartrees-Bohrs-Radians)
 Mixed Optimization -- RFO/linear search
 Update second derivatives using D2CorX and points    2    3
 The second derivative matrix:
                          R1        R2        R3        R4        R5
           R1           0.03927
           R2           0.00225   0.56746
           R3           0.00226  -0.14280   0.56763
           R4           0.00000   0.00226   0.00227   0.03926
           R5           0.00000   0.00225   0.00226   0.00000   0.03927
           R6           0.00225  -0.14276  -0.14285   0.00226   0.00225
           A1          -0.00001   0.00292   0.00292  -0.00001  -0.00001
           A2          -0.00001   0.00289   0.00289  -0.00001  -0.00001
           A3          -0.00001   0.00290   0.00290  -0.00001  -0.00001
           A4           0.00001  -0.00289  -0.00289   0.00001   0.00001
           A5           0.00001  -0.00291  -0.00291   0.00001   0.00001
           A6           0.00001  -0.00291  -0.00291   0.00001   0.00001
           D1           0.00000   0.00000   0.00000   0.00000   0.00000
           D2           0.00000   0.00000   0.00000   0.00000   0.00000
           D3           0.00000   0.00000   0.00000   0.00000   0.00000
           D4           0.00000   0.00000   0.00000   0.00000   0.00000
           D5           0.00000   0.00000   0.00000   0.00000   0.00000
           D6           0.00000   0.00000   0.00000   0.00000   0.00000
                          R6        A1        A2        A3        A4
           R6           0.56751
           A1           0.00292   0.24998
           A2           0.00289  -0.00002   0.24998
           A3           0.00290  -0.00002  -0.00002   0.24998
           A4          -0.00289   0.00002   0.00002   0.00002   0.24998
           A5          -0.00291   0.00002   0.00002   0.00002  -0.00002
           A6          -0.00291   0.00002   0.00002   0.00002  -0.00002
           D1           0.00000   0.00000   0.00000   0.00000   0.00000
           D2           0.00000   0.00000   0.00000   0.00000   0.00000
           D3           0.00000   0.00000   0.00000   0.00000   0.00000
           D4           0.00000   0.00000   0.00000   0.00000   0.00000
           D5           0.00000   0.00000   0.00000   0.00000   0.00000
           D6           0.00000   0.00000   0.00000   0.00000   0.00000
                          A5        A6        D1        D2        D3
           A5           0.24998
           A6          -0.00002   0.24998
           D1           0.00000   0.00000   0.00230
           D2           0.00000   0.00000   0.00000   0.09277
           D3           0.00000   0.00000   0.00000   0.00000   0.09279
           D4           0.00000   0.00000   0.00000   0.00000   0.00000
           D5           0.00000   0.00000   0.00000   0.00000   0.00000
           D6           0.00000   0.00000   0.00000   0.00000   0.00000
                          D4        D5        D6
           D4           0.00230
           D5           0.00000   0.00230
           D6           0.00000   0.00000   0.09278
 ITU=  0  1  0
 Use linear search instead of GDIIS.
 Linear search step of   1.200 exceeds DXMaxT=   0.505 scaled by   0.841
 Quartic linear search produced a step of  1.68179.
 Iteration  1 RMS(Cart)=  0.06018240 RMS(Int)=  0.15454947
 Iteration  2 RMS(Cart)=  0.06662796 RMS(Int)=  0.07289964
 Iteration  3 RMS(Cart)=  0.05951520 RMS(Int)=  0.00000749
 Iteration  4 RMS(Cart)=  0.00001050 RMS(Int)=  0.00000138
 Iteration  5 RMS(Cart)=  0.00000000 RMS(Int)=  0.00000138
 Variable       Old X    -DE/DX   Delta X   Delta X   Delta X     New X
                                 (Linear)    (Quad)   (Total)
    R1        5.54611  -0.00866  -0.06330   0.00000  -0.06330   5.48280
    R2        3.93068   0.07833   0.57866   0.00000   0.57866   4.50933
    R3        3.93050   0.07837   0.57870   0.00000   0.57870   4.50920
    R4        5.54624  -0.00867  -0.06323   0.00000  -0.06323   5.48301
    R5        5.54610  -0.00867  -0.06331   0.00000  -0.06331   5.48279
    R6        3.93060   0.07835   0.57867   0.00000   0.57867   4.50927
    A1        2.06328  -0.00454  -0.01637   0.00000  -0.01637   2.04691
    A2        2.06292  -0.00452  -0.01645   0.00000  -0.01645   2.04647
    A3        2.06305  -0.00453  -0.01644   0.00000  -0.01645   2.04661
    A4        2.12594   0.00452   0.01647   0.00000   0.01647   2.14240
    A5        2.12557   0.00454   0.01640   0.00000   0.01640   2.14197
    A6        2.12560   0.00454   0.01640   0.00000   0.01640   2.14201
    D1       -0.00016   0.00000   0.00002   0.00000   0.00001  -0.00014
    D2        0.00024   0.00000   0.00000   0.00000   0.00000   0.00024
    D3        0.00044   0.00000  -0.00001   0.00000  -0.00001   0.00044
    D4       -0.00043   0.00000   0.00002   0.00000   0.00002  -0.00041
    D5       -0.00036   0.00000   0.00002   0.00000   0.00002  -0.00035
    D6        0.00017   0.00000   0.00000   0.00000   0.00000   0.00017
         Item               Value     Threshold  Converged?
 Maximum Force            0.078372     0.000450     NO 
 RMS     Force            0.032289     0.000300     NO 
 Maximum Displacement     0.324848     0.001800     NO 
 RMS     Displacement     0.183483     0.001200     NO 
 Predicted change in Energy=-2.698307D-03
 GradGradGradGradGradGradGradGradGradGradGradGradGradGradGradGradGradGrad

                          Input orientation:                          
 ---------------------------------------------------------------------
 Center     Atomic      Atomic             Coordinates (Angstroms)
 Number     Number       Type             X           Y           Z
 ---------------------------------------------------------------------
      1         17           0       -0.419253    2.650049   -0.000046
      2         17           0        2.505060   -0.962106   -0.000174
      3         17           0       -2.085709   -1.688214   -0.000045
      4         11           0        0.694843   -2.516749    0.000237
      5         11           0       -2.527490    0.656734    0.000017
      6         11           0        1.832527    1.860360    0.000141
 ---------------------------------------------------------------------
                    Distance matrix (angstroms):
                    1          2          3          4          5
     1  Cl   0.000000
     2  Cl   4.647501   0.000000
     3  Cl   4.647322   4.647837   0.000000
     4  Na   5.285548   2.386168   2.901369   0.000000
     5  Na   2.901374   5.286512   2.386201   4.522657   0.000000
     6  Na   2.386236   2.901484   5.286298   4.522544   4.523104
                    6
     6  Na   0.000000
 Stoichiometry    Cl3Na3
 Framework group  C1[X(Cl3Na3)]
 Deg. of freedom    12
 Full point group                 C1      NOp   1
 Largest Abelian subgroup         C1      NOp   1
 Largest concise Abelian subgroup C1      NOp   1
                         Standard orientation:                         
 ---------------------------------------------------------------------
 Center     Atomic      Atomic             Coordinates (Angstroms)
 Number     Number       Type             X           Y           Z
 ---------------------------------------------------------------------
      1         17           0       -0.255613    2.670815   -0.000044
      2         17           0        2.441199   -1.114218   -0.000172
      3         17           0       -2.185515   -1.556843   -0.000043
      4         11           0        0.538867   -2.554682    0.000239
      5         11           0       -2.482360    0.810822    0.000019
      6         11           0        1.943383    1.744241    0.000142
 ---------------------------------------------------------------------
 Rotational constants (GHZ):           0.8248270           0.8246034           0.4123576
 Standard basis: 6-311+G(2d,p) (5D, 7F)
 There are   222 symmetry adapted cartesian basis functions of A   symmetry.
 There are   210 symmetry adapted basis functions of A   symmetry.
   210 basis functions,   345 primitive gaussians,   222 cartesian basis functions
    42 alpha electrons       42 beta electrons
       nuclear repulsion energy       424.0790919651 Hartrees.
 NAtoms=    6 NActive=    6 NUniq=    6 SFac= 1.00D+00 NAtFMM=   60 NAOKFM=F Big=F
 Integral buffers will be    131072 words long.
 Raffenetti 2 integral format.
 Two-electron integral symmetry is turned on.
 One-electron integrals computed using PRISM.
 NBasis=   210 RedAO= T EigKep=  6.81D-04  NBF=   210
 NBsUse=   210 1.00D-06 EigRej= -1.00D+00 NBFU=   210
 Initial guess from the checkpoint file:  "NaCl-3-molecules.chk"
 B after Tr=     0.000000    0.000000    0.000000
         Rot=    0.999949    0.000000    0.000000    0.010095 Ang=   1.16 deg.
 ExpMin= 7.60D-03 ExpMax= 1.06D+05 ExpMxC= 3.62D+03 IAcc=3 IRadAn=         5 AccDes= 0.00D+00
 Harris functional with IExCor=  402 and IRadAn=       5 diagonalized for initial guess.
 HarFok:  IExCor=  402 AccDes= 0.00D+00 IRadAn=         5 IDoV= 1 UseB2=F ITyADJ=14
 ICtDFT=  3500011 ScaDFX=  1.000000  1.000000  1.000000  1.000000
 FoFCou: FMM=F IPFlag=           0 FMFlag=      100000 FMFlg1=           0
         NFxFlg=           0 DoJE=T BraDBF=F KetDBF=T FulRan=T
         wScrn=  0.000000 ICntrl=       500 IOpCl=  0 I1Cent=   200000004 NGrid=           0
         NMat0=    1 NMatS0=      1 NMatT0=    0 NMatD0=    1 NMtDS0=    0 NMtDT0=    0
 Petite list used in FoFCou.
 Requested convergence on RMS density matrix=1.00D-08 within  32 cycles.
 Requested convergence on MAX density matrix=1.00D-06.
 Requested convergence on             energy=1.00D-06.
 No special actions if energy rises.
 SCF Done:  E(RB3LYP) =  -1867.92043266     A.U. after    9 cycles
            NFock=  9  Conv=0.48D-08     -V/T= 2.0025
 QCSCF skips out because SCF is already converged.
 Calling FoFJK, ICntrl=      2127 FMM=F ISym2X=0 I1Cent= 0 IOpClX= 0 NMat=1 NMatS=1 NMatT=0.
 ***** Axes restored to original set *****
 -------------------------------------------------------------------
 Center     Atomic                   Forces (Hartrees/Bohr)
 Number     Number              X              Y              Z
 -------------------------------------------------------------------
      1       17          -0.017581719   -0.000380787    0.000000619
      2       17           0.008450720    0.015409289    0.000001060
      3       17           0.009122877   -0.015030028    0.000002064
      4       11          -0.018471867   -0.000354734   -0.000001111
      5       11           0.008929043    0.016177266   -0.000000821
      6       11           0.009550946   -0.015821006   -0.000001811
 -------------------------------------------------------------------
 Cartesian Forces:  Max     0.018471867 RMS     0.010412449

 GradGradGradGradGradGradGradGradGradGradGradGradGradGradGradGradGradGrad
 Berny optimization.
 Using GEDIIS/GDIIS optimizer.
 FormGI is forming the generalized inverse of G from B-inverse, IUseBI=4.
 Internal  Forces:  Max     0.010291429 RMS     0.006538221
 Search for a local minimum.
 Step number   4 out of a maximum of   28
 All quantities printed in internal units (Hartrees-Bohrs-Radians)
 Mixed Optimization -- RFO/linear search
 Update second derivatives using D2CorX and points    3    4
 The second derivative matrix:
                          R1        R2        R3        R4        R5
           R1           0.03928
           R2           0.00237   0.51317
           R3           0.00237  -0.19711   0.51330
           R4           0.00001   0.00236   0.00237   0.03928
           R5           0.00001   0.00237   0.00237   0.00001   0.03928
           R6           0.00237  -0.19704  -0.19715   0.00236   0.00237
           A1          -0.00001   0.00254   0.00254  -0.00001  -0.00001
           A2          -0.00001   0.00256   0.00256  -0.00001  -0.00001
           A3          -0.00001   0.00255   0.00255  -0.00001  -0.00001
           A4           0.00001  -0.00256  -0.00256   0.00001   0.00001
           A5           0.00001  -0.00254  -0.00254   0.00001   0.00001
           A6           0.00001  -0.00254  -0.00254   0.00001   0.00001
           D1           0.00000   0.00000   0.00000   0.00000   0.00000
           D2           0.00000   0.00000   0.00000   0.00000   0.00000
           D3           0.00000   0.00000   0.00000   0.00000   0.00000
           D4           0.00000   0.00000   0.00000   0.00000   0.00000
           D5           0.00000   0.00000   0.00000   0.00000   0.00000
           D6           0.00000   0.00000   0.00000   0.00000   0.00000
                          R6        A1        A2        A3        A4
           R6           0.51323
           A1           0.00254   0.24998
           A2           0.00256  -0.00002   0.24998
           A3           0.00255  -0.00002  -0.00002   0.24998
           A4          -0.00256   0.00002   0.00002   0.00002   0.24998
           A5          -0.00254   0.00002   0.00002   0.00002  -0.00002
           A6          -0.00254   0.00002   0.00002   0.00002  -0.00002
           D1           0.00000   0.00000   0.00000   0.00000   0.00000
           D2           0.00000   0.00000   0.00000   0.00000   0.00000
           D3           0.00000   0.00000   0.00000   0.00000   0.00000
           D4           0.00000   0.00000   0.00000   0.00000   0.00000
           D5           0.00000   0.00000   0.00000   0.00000   0.00000
           D6           0.00000   0.00000   0.00000   0.00000   0.00000
                          A5        A6        D1        D2        D3
           A5           0.24998
           A6          -0.00002   0.24998
           D1           0.00000   0.00000   0.00230
           D2           0.00000   0.00000   0.00000   0.09277
           D3           0.00000   0.00000   0.00000   0.00000   0.09279
           D4           0.00000   0.00000   0.00000   0.00000   0.00000
           D5           0.00000   0.00000   0.00000   0.00000   0.00000
           D6           0.00000   0.00000   0.00000   0.00000   0.00000
                          D4        D5        D6
           D4           0.00230
           D5           0.00000   0.00230
           D6           0.00000   0.00000   0.09278
 ITU=  0  0  1  0
 Use linear search instead of GDIIS.
 Linear search step of   0.604 exceeds DXMaxT=   0.505 but not scaled.
 Quartic linear search produced a step of  0.59902.
 Iteration  1 RMS(Cart)=  0.06169401 RMS(Int)=  0.05985222
 Iteration  2 RMS(Cart)=  0.04884624 RMS(Int)=  0.00000345
 Iteration  3 RMS(Cart)=  0.00000499 RMS(Int)=  0.00000074
 Iteration  4 RMS(Cart)=  0.00000000 RMS(Int)=  0.00000074
 Variable       Old X    -DE/DX   Delta X   Delta X   Delta X     New X
                                 (Linear)    (Quad)   (Total)
    R1        5.48280  -0.01029  -0.03792   0.00000  -0.03792   5.44488
    R2        4.50933   0.01017   0.34663   0.00000   0.34663   4.85596
    R3        4.50920   0.01017   0.34665   0.00000   0.34665   4.85586
    R4        5.48301  -0.01029  -0.03788   0.00000  -0.03788   5.44513
    R5        5.48279  -0.01029  -0.03792   0.00000  -0.03792   5.44487
    R6        4.50927   0.01017   0.34663   0.00000   0.34663   4.85590
    A1        2.04691  -0.00486  -0.00981   0.00000  -0.00981   2.03710
    A2        2.04647  -0.00485  -0.00985   0.00000  -0.00985   2.03662
    A3        2.04661  -0.00486  -0.00985   0.00000  -0.00985   2.03676
    A4        2.14240   0.00485   0.00986   0.00000   0.00986   2.15227
    A5        2.14197   0.00486   0.00982   0.00000   0.00982   2.15179
    A6        2.14201   0.00486   0.00983   0.00000   0.00983   2.15183
    D1       -0.00014   0.00000   0.00001   0.00000   0.00001  -0.00014
    D2        0.00024   0.00000   0.00000   0.00000   0.00000   0.00024
    D3        0.00044   0.00000   0.00000   0.00000  -0.00001   0.00043
    D4       -0.00041   0.00000   0.00001   0.00000   0.00001  -0.00040
    D5       -0.00035   0.00000   0.00001   0.00000   0.00001  -0.00034
    D6        0.00017   0.00000   0.00000   0.00000   0.00000   0.00016
         Item               Value     Threshold  Converged?
 Maximum Force            0.010291     0.000450     NO 
 RMS     Force            0.006538     0.000300     NO 
 Maximum Displacement     0.195729     0.001800     NO 
 RMS     Displacement     0.109878     0.001200     NO 
 Predicted change in Energy=-9.142065D-03
 GradGradGradGradGradGradGradGradGradGradGradGradGradGradGradGradGradGrad

                          Input orientation:                          
 ---------------------------------------------------------------------
 Center     Atomic      Atomic             Coordinates (Angstroms)
 Number     Number       Type             X           Y           Z
 ---------------------------------------------------------------------
      1         17           0       -0.494348    2.726211   -0.000048
      2         17           0        2.608635   -0.935172   -0.000178
      3         17           0       -2.114171   -1.791357   -0.000043
      4         11           0        0.651316   -2.600043    0.000242
      5         11           0       -2.577928    0.736079    0.000017
      6         11           0        1.926473    1.864356    0.000140
 ---------------------------------------------------------------------
                    Distance matrix (angstroms):
                    1          2          3          4          5
     1  Cl   0.000000
     2  Cl   4.799398   0.000000
     3  Cl   4.799192   4.799787   0.000000
     4  Na   5.448075   2.569610   2.881300   0.000000
     5  Na   2.881307   5.449176   2.569631   4.643030   0.000000
     6  Na   2.569663   2.881440   5.448948   4.642939   4.643559
                    6
     6  Na   0.000000
 Stoichiometry    Cl3Na3
 Framework group  C1[X(Cl3Na3)]
 Deg. of freedom    12
 Full point group                 C1      NOp   1
 Largest Abelian subgroup         C1      NOp   1
 Largest concise Abelian subgroup C1      NOp   1
                         Standard orientation:                         
 ---------------------------------------------------------------------
 Center     Atomic      Atomic             Coordinates (Angstroms)
 Number     Number       Type             X           Y           Z
 ---------------------------------------------------------------------
      1         17           0       -0.287031    2.755775   -0.000046
      2         17           0        2.530547   -1.129516   -0.000176
      3         17           0       -2.243436   -1.626545   -0.000041
      4         11           0        0.453071   -2.641796    0.000244
      5         11           0       -2.514973    0.928699    0.000019
      6         11           0        2.061779    1.713538    0.000142
 ---------------------------------------------------------------------
 Rotational constants (GHZ):           0.7769429           0.7767081           0.3884128
 Standard basis: 6-311+G(2d,p) (5D, 7F)
 There are   222 symmetry adapted cartesian basis functions of A   symmetry.
 There are   210 symmetry adapted basis functions of A   symmetry.
   210 basis functions,   345 primitive gaussians,   222 cartesian basis functions
    42 alpha electrons       42 beta electrons
       nuclear repulsion energy       410.0084917371 Hartrees.
 NAtoms=    6 NActive=    6 NUniq=    6 SFac= 1.00D+00 NAtFMM=   60 NAOKFM=F Big=F
 Integral buffers will be    131072 words long.
 Raffenetti 2 integral format.
 Two-electron integral symmetry is turned on.
 One-electron integrals computed using PRISM.
 NBasis=   210 RedAO= T EigKep=  7.99D-04  NBF=   210
 NBsUse=   210 1.00D-06 EigRej= -1.00D+00 NBFU=   210
 Initial guess from the checkpoint file:  "NaCl-3-molecules.chk"
 B after Tr=     0.000000    0.000000    0.000000
         Rot=    0.999989    0.000000    0.000000    0.004599 Ang=   0.53 deg.
 ExpMin= 7.60D-03 ExpMax= 1.06D+05 ExpMxC= 3.62D+03 IAcc=3 IRadAn=         5 AccDes= 0.00D+00
 Harris functional with IExCor=  402 and IRadAn=       5 diagonalized for initial guess.
 HarFok:  IExCor=  402 AccDes= 0.00D+00 IRadAn=         5 IDoV= 1 UseB2=F ITyADJ=14
 ICtDFT=  3500011 ScaDFX=  1.000000  1.000000  1.000000  1.000000
 FoFCou: FMM=F IPFlag=           0 FMFlag=      100000 FMFlg1=           0
         NFxFlg=           0 DoJE=T BraDBF=F KetDBF=T FulRan=T
         wScrn=  0.000000 ICntrl=       500 IOpCl=  0 I1Cent=   200000004 NGrid=           0
         NMat0=    1 NMatS0=      1 NMatT0=    0 NMatD0=    1 NMtDS0=    0 NMtDT0=    0
 Petite list used in FoFCou.
 Requested convergence on RMS density matrix=1.00D-08 within  32 cycles.
 Requested convergence on MAX density matrix=1.00D-06.
 Requested convergence on             energy=1.00D-06.
 No special actions if energy rises.
 SCF Done:  E(RB3LYP) =  -1867.92375290     A.U. after    8 cycles
            NFock=  8  Conv=0.78D-08     -V/T= 2.0027
 QCSCF skips out because SCF is already converged.
 Calling FoFJK, ICntrl=      2127 FMM=F ISym2X=0 I1Cent= 0 IOpClX= 0 NMat=1 NMatS=1 NMatT=0.
 ***** Axes restored to original set *****
 -------------------------------------------------------------------
 Center     Atomic                   Forces (Hartrees/Bohr)
 Number     Number              X              Y              Z
 -------------------------------------------------------------------
      1       17          -0.004209478   -0.006304042    0.000001715
      2       17          -0.003361728    0.006801724    0.000003604
      3       17           0.007567812   -0.000487452    0.000002488
      4       11          -0.007976826    0.009443915   -0.000003631
      5       11           0.012174484    0.002180185   -0.000001176
      6       11          -0.004194263   -0.011634331   -0.000003000
 -------------------------------------------------------------------
 Cartesian Forces:  Max     0.012174484 RMS     0.005922053

 GradGradGradGradGradGradGradGradGradGradGradGradGradGradGradGradGradGrad
 Berny optimization.
 Using GEDIIS/GDIIS optimizer.
 FormGI is forming the generalized inverse of G from B-inverse, IUseBI=4.
 Internal  Forces:  Max     0.011304372 RMS     0.005715406
 Search for a local minimum.
 Step number   5 out of a maximum of   28
 All quantities printed in internal units (Hartrees-Bohrs-Radians)
 Mixed Optimization -- RFO/linear search
 Update second derivatives using D2CorX and points    4    5
 The second derivative matrix:
                          R1        R2        R3        R4        R5
           R1           0.03933
           R2           0.00241   0.48831
           R3           0.00241  -0.22201   0.48836
           R4           0.00006   0.00241   0.00241   0.03932
           R5           0.00006   0.00241   0.00241   0.00006   0.03933
           R6           0.00241  -0.22192  -0.22206   0.00241   0.00241
           A1          -0.00002   0.00226   0.00226  -0.00002  -0.00002
           A2          -0.00002   0.00227   0.00227  -0.00002  -0.00002
           A3          -0.00002   0.00227   0.00227  -0.00002  -0.00002
           A4           0.00002  -0.00227  -0.00227   0.00002   0.00002
           A5           0.00002  -0.00226  -0.00226   0.00002   0.00002
           A6           0.00002  -0.00226  -0.00226   0.00002   0.00002
           D1           0.00000   0.00000   0.00000   0.00000   0.00000
           D2           0.00000   0.00000   0.00000   0.00000   0.00000
           D3           0.00000   0.00000   0.00000   0.00000   0.00000
           D4           0.00000   0.00000   0.00000   0.00000   0.00000
           D5           0.00000   0.00000   0.00000   0.00000   0.00000
           D6           0.00000   0.00000   0.00000   0.00000   0.00000
                          R6        A1        A2        A3        A4
           R6           0.48834
           A1           0.00226   0.24998
           A2           0.00227  -0.00002   0.24998
           A3           0.00227  -0.00002  -0.00002   0.24998
           A4          -0.00227   0.00002   0.00002   0.00002   0.24998
           A5          -0.00226   0.00002   0.00002   0.00002  -0.00002
           A6          -0.00226   0.00002   0.00002   0.00002  -0.00002
           D1           0.00000   0.00000   0.00000   0.00000   0.00000
           D2           0.00000   0.00000   0.00000   0.00000   0.00000
           D3           0.00000   0.00000   0.00000   0.00000   0.00000
           D4           0.00000   0.00000   0.00000   0.00000   0.00000
           D5           0.00000   0.00000   0.00000   0.00000   0.00000
           D6           0.00000   0.00000   0.00000   0.00000   0.00000
                          A5        A6        D1        D2        D3
           A5           0.24998
           A6          -0.00002   0.24998
           D1           0.00000   0.00000   0.00230
           D2           0.00000   0.00000   0.00000   0.09277
           D3           0.00000   0.00000   0.00000   0.00000   0.09279
           D4           0.00000   0.00000   0.00000   0.00000   0.00000
           D5           0.00000   0.00000   0.00000   0.00000   0.00000
           D6           0.00000   0.00000   0.00000   0.00000   0.00000
                          D4        D5        D6
           D4           0.00230
           D5           0.00000   0.00230
           D6           0.00000   0.00000   0.09278
 ITU=  0  0  0  1  0
 Use linear search instead of GDIIS.
     Eigenvalues ---    0.03410   0.04314   0.04314   0.04582   0.04754
     Eigenvalues ---    0.04754   0.04923   0.25000   0.25000   0.25031
     Eigenvalues ---    0.70183   0.70203
 RFO step:  Lambda=-8.01656733D-03 EMin= 3.41030401D-02
 Quartic linear search produced a step of -0.29958.
 Iteration  1 RMS(Cart)=  0.08839513 RMS(Int)=  0.00790231
 Iteration  2 RMS(Cart)=  0.00647266 RMS(Int)=  0.00000039
 Iteration  3 RMS(Cart)=  0.00000052 RMS(Int)=  0.00000013
 Variable       Old X    -DE/DX   Delta X   Delta X   Delta X     New X
                                 (Linear)    (Quad)   (Total)
    R1        5.44488  -0.01130   0.01136  -0.23053  -0.21917   5.22571
    R2        4.85596  -0.00479  -0.10384   0.00885  -0.09500   4.76096
    R3        4.85586  -0.00479  -0.10385   0.00884  -0.09501   4.76085
    R4        5.44513  -0.01130   0.01135  -0.23055  -0.21920   5.22593
    R5        5.44487  -0.01130   0.01136  -0.23055  -0.21919   5.22568
    R6        4.85590  -0.00479  -0.10384   0.00884  -0.09500   4.76090
    A1        2.03710  -0.00476   0.00294  -0.01874  -0.01580   2.02130
    A2        2.03662  -0.00475   0.00295  -0.01870  -0.01575   2.02087
    A3        2.03676  -0.00476   0.00295  -0.01872  -0.01577   2.02099
    A4        2.15227   0.00475  -0.00296   0.01870   0.01575   2.16802
    A5        2.15179   0.00476  -0.00294   0.01873   0.01579   2.16758
    A6        2.15183   0.00476  -0.00294   0.01873   0.01578   2.16762
    D1       -0.00014   0.00000   0.00000   0.00001   0.00001  -0.00012
    D2        0.00024   0.00000   0.00000  -0.00001  -0.00001   0.00023
    D3        0.00043   0.00000   0.00000  -0.00002  -0.00002   0.00041
    D4       -0.00040   0.00000   0.00000   0.00003   0.00003  -0.00037
    D5       -0.00034   0.00000   0.00000   0.00002   0.00002  -0.00032
    D6        0.00016   0.00000   0.00000  -0.00001  -0.00001   0.00015
         Item               Value     Threshold  Converged?
 Maximum Force            0.011304     0.000450     NO 
 RMS     Force            0.005715     0.000300     NO 
 Maximum Displacement     0.181278     0.001800     NO 
 RMS     Displacement     0.094434     0.001200     NO 
 Predicted change in Energy=-5.108485D-03
 GradGradGradGradGradGradGradGradGradGradGradGradGradGradGradGradGradGrad

                          Input orientation:                          
 ---------------------------------------------------------------------
 Center     Atomic      Atomic             Coordinates (Angstroms)
 Number     Number       Type             X           Y           Z
 ---------------------------------------------------------------------
      1         17           0       -0.496831    2.650924   -0.000043
      2         17           0        2.544601   -0.895357   -0.000161
      3         17           0       -2.047673   -1.755846   -0.000035
      4         11           0        0.612276   -2.511886    0.000226
      5         11           0       -2.482000    0.725793    0.000016
      6         11           0        1.869604    1.786446    0.000128
 ---------------------------------------------------------------------
                    Distance matrix (angstroms):
                    1          2          3          4          5
     1  Cl   0.000000
     2  Cl   4.671875   0.000000
     3  Cl   4.671695   4.672197   0.000000
     4  Na   5.280600   2.519335   2.765308   0.000000
     5  Na   2.765326   5.281557   2.519359   4.478517   0.000000
     6  Na   2.519393   2.765445   5.281372   4.478452   4.479000
                    6
     6  Na   0.000000
 Stoichiometry    Cl3Na3
 Framework group  C1[X(Cl3Na3)]
 Deg. of freedom    12
 Full point group                 C1      NOp   1
 Largest Abelian subgroup         C1      NOp   1
 Largest concise Abelian subgroup C1      NOp   1
                         Standard orientation:                         
 ---------------------------------------------------------------------
 Center     Atomic      Atomic             Coordinates (Angstroms)
 Number     Number       Type             X           Y           Z
 ---------------------------------------------------------------------
      1         17           0       -0.282132    2.682294   -0.000043
      2         17           0        2.464390   -1.096996   -0.000161
      3         17           0       -2.182194   -1.585551   -0.000035
      4         11           0        0.408374   -2.552965    0.000226
      5         11           0       -2.415628    0.922970    0.000016
      6         11           0        2.007154    1.630387    0.000128
 ---------------------------------------------------------------------
 Rotational constants (GHZ):           0.8256256           0.8254037           0.4127573
 Standard basis: 6-311+G(2d,p) (5D, 7F)
 There are   222 symmetry adapted cartesian basis functions of A   symmetry.
 There are   210 symmetry adapted basis functions of A   symmetry.
   210 basis functions,   345 primitive gaussians,   222 cartesian basis functions
    42 alpha electrons       42 beta electrons
       nuclear repulsion energy       422.4932089664 Hartrees.
 NAtoms=    6 NActive=    6 NUniq=    6 SFac= 1.00D+00 NAtFMM=   60 NAOKFM=F Big=F
 Integral buffers will be    131072 words long.
 Raffenetti 2 integral format.
 Two-electron integral symmetry is turned on.
 One-electron integrals computed using PRISM.
 NBasis=   210 RedAO= T EigKep=  6.56D-04  NBF=   210
 NBsUse=   210 1.00D-06 EigRej= -1.00D+00 NBFU=   210
 Initial guess from the checkpoint file:  "NaCl-3-molecules.chk"
 B after Tr=     0.000000    0.000000    0.000000
         Rot=    0.999998    0.000000    0.000000    0.001788 Ang=   0.20 deg.
 ExpMin= 7.60D-03 ExpMax= 1.06D+05 ExpMxC= 3.62D+03 IAcc=3 IRadAn=         5 AccDes= 0.00D+00
 Harris functional with IExCor=  402 and IRadAn=       5 diagonalized for initial guess.
 HarFok:  IExCor=  402 AccDes= 0.00D+00 IRadAn=         5 IDoV= 1 UseB2=F ITyADJ=14
 ICtDFT=  3500011 ScaDFX=  1.000000  1.000000  1.000000  1.000000
 FoFCou: FMM=F IPFlag=           0 FMFlag=      100000 FMFlg1=           0
         NFxFlg=           0 DoJE=T BraDBF=F KetDBF=T FulRan=T
         wScrn=  0.000000 ICntrl=       500 IOpCl=  0 I1Cent=   200000004 NGrid=           0
         NMat0=    1 NMatS0=      1 NMatT0=    0 NMatD0=    1 NMtDS0=    0 NMtDT0=    0
 Petite list used in FoFCou.
 Requested convergence on RMS density matrix=1.00D-08 within  32 cycles.
 Requested convergence on MAX density matrix=1.00D-06.
 Requested convergence on             energy=1.00D-06.
 No special actions if energy rises.
 SCF Done:  E(RB3LYP) =  -1867.93188923     A.U. after    8 cycles
            NFock=  8  Conv=0.30D-08     -V/T= 2.0026
 QCSCF skips out because SCF is already converged.
 Calling FoFJK, ICntrl=      2127 FMM=F ISym2X=0 I1Cent= 0 IOpClX= 0 NMat=1 NMatS=1 NMatT=0.
 ***** Axes restored to original set *****
 -------------------------------------------------------------------
 Center     Atomic                   Forces (Hartrees/Bohr)
 Number     Number              X              Y              Z
 -------------------------------------------------------------------
      1       17          -0.006332893   -0.003753016    0.000001350
      2       17          -0.000075906    0.007374716    0.000002679
      3       17           0.006417768   -0.003610265    0.000002146
      4       11          -0.008982205    0.006339997   -0.000002734
      5       11           0.009987517    0.004598671   -0.000001016
      6       11          -0.001014280   -0.010950104   -0.000002425
 -------------------------------------------------------------------
 Cartesian Forces:  Max     0.010950104 RMS     0.005403250

 GradGradGradGradGradGradGradGradGradGradGradGradGradGradGradGradGradGrad
 Berny optimization.
 Using GEDIIS/GDIIS optimizer.
 FormGI is forming the generalized inverse of G from B-inverse, IUseBI=4.
 Internal  Forces:  Max     0.009327568 RMS     0.004656756
 Search for a local minimum.
 Step number   6 out of a maximum of   28
 All quantities printed in internal units (Hartrees-Bohrs-Radians)
 Mixed Optimization -- RFO/linear search
 Update second derivatives using D2CorX and points    5    6
 DE= -8.14D-03 DEPred=-5.11D-03 R= 1.59D+00
 TightC=F SS=  1.41D+00  RLast= 4.16D-01 DXNew= 8.4853D-01 1.2467D+00
 Trust test= 1.59D+00 RLast= 4.16D-01 DXMaxT set to 8.49D-01
 The second derivative matrix:
                          R1        R2        R3        R4        R5
           R1           0.03044
           R2          -0.00123   0.48998
           R3          -0.00121  -0.22031   0.49008
           R4          -0.00883  -0.00123  -0.00122   0.03044
           R5          -0.00882  -0.00122  -0.00121  -0.00883   0.03045
           R6          -0.00122  -0.22024  -0.22036  -0.00123  -0.00122
           A1          -0.00504  -0.00080  -0.00080  -0.00504  -0.00504
           A2          -0.00504  -0.00080  -0.00079  -0.00504  -0.00504
           A3          -0.00504  -0.00080  -0.00079  -0.00504  -0.00504
           A4           0.00504   0.00079   0.00079   0.00504   0.00504
           A5           0.00504   0.00080   0.00080   0.00504   0.00504
           A6           0.00504   0.00080   0.00080   0.00504   0.00504
           D1           0.00000   0.00000   0.00000   0.00000   0.00000
           D2           0.00000   0.00000   0.00000   0.00000   0.00000
           D3           0.00000   0.00000   0.00000   0.00000   0.00000
           D4           0.00000   0.00000   0.00000   0.00000   0.00000
           D5           0.00000   0.00000   0.00000   0.00000   0.00000
           D6           0.00000   0.00000   0.00000   0.00000   0.00000
                          R6        A1        A2        A3        A4
           R6           0.49004
           A1          -0.00080   0.24746
           A2          -0.00080  -0.00254   0.24747
           A3          -0.00080  -0.00254  -0.00253   0.24746
           A4           0.00079   0.00254   0.00253   0.00253   0.24747
           A5           0.00080   0.00254   0.00254   0.00254  -0.00254
           A6           0.00080   0.00254   0.00254   0.00254  -0.00254
           D1           0.00000   0.00000   0.00000   0.00000   0.00000
           D2           0.00000   0.00000   0.00000   0.00000   0.00000
           D3           0.00000   0.00000   0.00000   0.00000   0.00000
           D4           0.00000   0.00000   0.00000   0.00000   0.00000
           D5           0.00000   0.00000   0.00000   0.00000   0.00000
           D6           0.00000   0.00000   0.00000   0.00000   0.00000
                          A5        A6        D1        D2        D3
           A5           0.24746
           A6          -0.00254   0.24746
           D1           0.00000   0.00000   0.00230
           D2           0.00000   0.00000   0.00000   0.09277
           D3           0.00000   0.00000   0.00000   0.00000   0.09279
           D4           0.00000   0.00000   0.00000   0.00000   0.00000
           D5           0.00000   0.00000   0.00000   0.00000   0.00000
           D6           0.00000   0.00000   0.00000   0.00000   0.00000
                          D4        D5        D6
           D4           0.00230
           D5           0.00000   0.00230
           D6           0.00000   0.00000   0.09278
 ITU=  1  0  0  0  1  0
 Use linear search instead of GDIIS.
     Eigenvalues ---    0.01035   0.04338   0.04339   0.04614   0.04754
     Eigenvalues ---    0.04754   0.04978   0.23686   0.25000   0.25000
     Eigenvalues ---    0.70131   0.70150
 RFO step:  Lambda=-4.28069923D-03 EMin= 1.03489941D-02
 Quartic linear search produced a step of  1.67975.
 Iteration  1 RMS(Cart)=  0.08826915 RMS(Int)=  0.13647956
 Iteration  2 RMS(Cart)=  0.06687400 RMS(Int)=  0.05482605
 Iteration  3 RMS(Cart)=  0.04473676 RMS(Int)=  0.00000962
 Iteration  4 RMS(Cart)=  0.00001304 RMS(Int)=  0.00000070
 Iteration  5 RMS(Cart)=  0.00000000 RMS(Int)=  0.00000070
 Variable       Old X    -DE/DX   Delta X   Delta X   Delta X     New X
[...]
           Y           -0.00229   1.00000   0.00001
           Z            0.00000  -0.00001   1.00000
 This molecule is an asymmetric top.
 Rotational symmetry number  1.
 Warning -- assumption of classical behavior for rotation
           may cause significant error
 Rotational temperatures (Kelvin)      0.04277     0.04277     0.02139
 Rotational constants (GHZ):           0.89127     0.89124     0.44563
 Zero-point vibrational energy      11537.3 (Joules/Mol)
                                    2.75747 (Kcal/Mol)
 Warning -- explicit consideration of  12 degrees of freedom as
           vibrations may cause significant error
 Vibrational temperatures:     70.12    70.26    73.50    73.57   127.62
          (Kelvin)            168.66   268.12   302.23   302.40   435.10
                              441.76   441.90
 
 Zero-point correction=                           0.004394 (Hartree/Particle)
 Thermal correction to Energy=                    0.014938
 Thermal correction to Enthalpy=                  0.015882
 Thermal correction to Gibbs Free Energy=        -0.035991
 Sum of electronic and zero-point Energies=          -1867.937829
 Sum of electronic and thermal Energies=             -1867.927286
 Sum of electronic and thermal Enthalpies=           -1867.926341
 Sum of electronic and thermal Free Energies=        -1867.978214
 
                     E (Thermal)             CV                S
                      KCal/Mol        Cal/Mol-Kelvin    Cal/Mol-Kelvin
 Total                    9.374             28.263            109.175
 Electronic               0.000              0.000              0.000
 Translational            0.889              2.981             41.367
 Rotational               0.889              2.981             31.185
 Vibrational              7.596             22.301             36.623
 Vibration     1          0.595              1.978              4.868
 Vibration     2          0.595              1.978              4.864
 Vibration     3          0.595              1.977              4.775
 Vibration     4          0.595              1.977              4.773
 Vibration     5          0.602              1.957              3.689
 Vibration     6          0.608              1.935              3.146
 Vibration     7          0.632              1.859              2.264
 Vibration     8          0.642              1.825              2.043
 Vibration     9          0.642              1.825              2.042
 Vibration    10          0.694              1.669              1.404
 Vibration    11          0.697              1.660              1.378
 Vibration    12          0.697              1.660              1.378
                       Q            Log10(Q)             Ln(Q)
 Total Bot       0.358570D+17         16.554574         38.118315
 Total V=0       0.376545D+19         18.575817         42.772399
 Vib (Bot)       0.272761D+03          2.435783          5.608597
 Vib (Bot)    1  0.424222D+01          0.627593          1.445087
 Vib (Bot)    2  0.423390D+01          0.626740          1.443123
 Vib (Bot)    3  0.404645D+01          0.607074          1.397840
 Vib (Bot)    4  0.404235D+01          0.606633          1.396825
 Vib (Bot)    5  0.231851D+01          0.365209          0.840924
 Vib (Bot)    6  0.174441D+01          0.241650          0.556419
 Vib (Bot)    7  0.107541D+01          0.031574          0.072701
 Vib (Bot)    8  0.945498D+00         -0.024339         -0.056044
 Vib (Bot)    9  0.944913D+00         -0.024608         -0.056662
 Vib (Bot)   10  0.628014D+00         -0.202031         -0.465193
 Vib (Bot)   11  0.616913D+00         -0.209776         -0.483027
 Vib (Bot)   12  0.616685D+00         -0.209936         -0.483397
 Vib (V=0)       0.286435D+05          4.457026         10.262681
 Vib (V=0)    1  0.477159D+01          0.678663          1.562679
 Vib (V=0)    2  0.476332D+01          0.677910          1.560945
 Vib (V=0)    3  0.457723D+01          0.660602          1.521093
 Vib (V=0)    4  0.457315D+01          0.660215          1.520202
 Vib (V=0)    5  0.287181D+01          0.458156          1.054942
 Vib (V=0)    6  0.231466D+01          0.364487          0.839262
 Vib (V=0)    7  0.168596D+01          0.226848          0.522336
 Vib (V=0)    8  0.156956D+01          0.195779          0.450798
 Vib (V=0)    9  0.156905D+01          0.195636          0.450468
 Vib (V=0)   10  0.130275D+01          0.114860          0.264475
 Vib (V=0)   11  0.129409D+01          0.111965          0.257809
 Vib (V=0)   12  0.129391D+01          0.111906          0.257672
 Electronic      0.100000D+01          0.000000          0.000000
 Translational   0.901183D+08          7.954813         18.316633
 Rotational      0.145874D+07          6.163978         14.193084
 ***** Axes restored to original set *****
 -------------------------------------------------------------------
 Center     Atomic                   Forces (Hartrees/Bohr)
 Number     Number              X              Y              Z
 -------------------------------------------------------------------
      1       17           0.000002553    0.000002676    0.000000145
      2       17          -0.000005635   -0.000003992    0.000000297
      3       17           0.000004239   -0.000002140    0.000000216
      4       11           0.000005146    0.000007318   -0.000000305
      5       11          -0.000003522   -0.000003061   -0.000000127
      6       11          -0.000002781   -0.000000801   -0.000000225
 -------------------------------------------------------------------
 Cartesian Forces:  Max     0.000007318 RMS     0.000003287
 FormGI is forming the generalized inverse of G from B-inverse, IUseBI=4.

 GradGradGradGradGradGradGradGradGradGradGradGradGradGradGradGradGradGrad
 Berny optimization.
 Internal  Forces:  Max     0.000009185 RMS     0.000002806
 Search for a local minimum.
 Step number   1 out of a maximum of    2
 All quantities printed in internal units (Hartrees-Bohrs-Radians)
 Second derivative matrix not updated -- analytic derivatives used.
 The second derivative matrix:
                          R1        R2        R3        R4        R5
           R1           0.03511
           R2           0.00095   0.03512
           R3           0.00156  -0.00005   0.03506
           R4          -0.00005   0.00110   0.00095   0.03514
           R5          -0.00006   0.00157   0.00109  -0.00006   0.03510
           R6           0.00109  -0.00006  -0.00006   0.00157   0.00095
           A1          -0.00176  -0.00175   0.00280  -0.00068   0.00280
           A2           0.00280  -0.00068  -0.00176  -0.00173  -0.00069
           A3          -0.00069   0.00280  -0.00069   0.00280  -0.00176
           A4           0.00185   0.00185  -0.00189  -0.00032  -0.00189
           A5          -0.00190  -0.00031   0.00184   0.00186  -0.00031
           A6          -0.00031  -0.00191  -0.00031  -0.00193   0.00185
           D1           0.00000   0.00000   0.00000   0.00000   0.00000
           D2           0.00000   0.00000   0.00000   0.00000   0.00000
           D3           0.00000   0.00000   0.00000   0.00000   0.00000
           D4           0.00000   0.00000   0.00000   0.00000   0.00000
           D5           0.00000   0.00000   0.00000   0.00000   0.00000
           D6           0.00000   0.00000   0.00000   0.00000   0.00000
                          R6        A1        A2        A3        A4
           R6           0.03513
           A1          -0.00068   0.00869
           A2           0.00280   0.00243   0.00869
           A3          -0.00176   0.00242   0.00243   0.00869
           A4          -0.00030  -0.00087  -0.00633  -0.00634   0.00975
           A5          -0.00191  -0.00633  -0.00088  -0.00633   0.00190
           A6           0.00185  -0.00634  -0.00634  -0.00088   0.00190
           D1           0.00000   0.00000   0.00000   0.00000   0.00000
           D2           0.00000   0.00000   0.00000   0.00000   0.00000
           D3           0.00000   0.00000   0.00000   0.00000   0.00000
           D4           0.00000   0.00000   0.00000   0.00000   0.00000
           D5           0.00000   0.00000   0.00000   0.00000   0.00000
           D6           0.00000   0.00000   0.00000   0.00000   0.00000
                          A5        A6        D1        D2        D3
           A5           0.00974
           A6           0.00190   0.00976
           D1           0.00000   0.00000   0.00151
           D2           0.00000   0.00000  -0.00080   0.00152
           D3           0.00000   0.00000   0.00035   0.00009   0.00152
           D4           0.00000   0.00000   0.00009  -0.00124  -0.00080
           D5           0.00000   0.00000   0.00009   0.00036  -0.00124
           D6           0.00000   0.00000  -0.00124   0.00008   0.00009
                          D4        D5        D6
           D4           0.00152
           D5           0.00008   0.00152
           D6           0.00036  -0.00080   0.00152
 ITU=  0
     Eigenvalues ---    0.00286   0.00287   0.00338   0.01248   0.01250
     Eigenvalues ---    0.02705   0.03138   0.03559   0.03561   0.03634
     Eigenvalues ---    0.03636   0.03865
 Angle between quadratic step and forces=  29.86 degrees.
 Linear search not attempted -- first point.
 Iteration  1 RMS(Cart)=  0.00021103 RMS(Int)=  0.00000002
 Iteration  2 RMS(Cart)=  0.00000002 RMS(Int)=  0.00000000
 Variable       Old X    -DE/DX   Delta X   Delta X   Delta X     New X
                                 (Linear)    (Quad)   (Total)
    R1        4.77892   0.00000   0.00000   0.00011   0.00011   4.77903
    R2        4.77919   0.00000   0.00000  -0.00004  -0.00004   4.77915
    R3        4.77924  -0.00001   0.00000  -0.00025  -0.00025   4.77899
    R4        4.77913   0.00000   0.00000  -0.00001  -0.00001   4.77912
    R5        4.77917   0.00000   0.00000  -0.00008  -0.00008   4.77910
    R6        4.77921   0.00000   0.00000   0.00001   0.00001   4.77923
    A1        1.82373   0.00000   0.00000   0.00000   0.00000   1.82373
    A2        1.82368   0.00000   0.00000  -0.00022  -0.00022   1.82346
    A3        1.82369   0.00000   0.00000   0.00010   0.00010   1.82379
    A4        2.36509   0.00000   0.00000   0.00015   0.00015   2.36523
    A5        2.36511   0.00000   0.00000  -0.00023  -0.00023   2.36488
    A6        2.36508   0.00000   0.00000   0.00020   0.00020   2.36528
    D1       -0.00001   0.00000   0.00000   0.00001   0.00001   0.00000
    D2        0.00003   0.00000   0.00000  -0.00003  -0.00003   0.00000
    D3        0.00008   0.00000   0.00000  -0.00008  -0.00008   0.00000
    D4       -0.00006   0.00000   0.00000   0.00006   0.00006   0.00000
    D5       -0.00006   0.00000   0.00000   0.00006   0.00006   0.00000
    D6        0.00002   0.00000   0.00000  -0.00002  -0.00002   0.00000
         Item               Value     Threshold  Converged?
 Maximum Force            0.000009     0.000450     YES
 RMS     Force            0.000003     0.000300     YES
 Maximum Displacement     0.000423     0.001800     YES
 RMS     Displacement     0.000211     0.001200     YES
 Predicted change in Energy=-2.686900D-09
 Optimization completed.
    -- Stationary point found.
                           ----------------------------
                           !   Optimized Parameters   !
                           ! (Angstroms and Degrees)  !
 --------------------------                            --------------------------
 ! Name  Definition              Value          Derivative Info.                !
 --------------------------------------------------------------------------------
 ! R1    R(1,5)                  2.5289         -DE/DX =    0.0                 !
 ! R2    R(1,6)                  2.529          -DE/DX =    0.0                 !
 ! R3    R(2,4)                  2.5291         -DE/DX =    0.0                 !
 ! R4    R(2,6)                  2.529          -DE/DX =    0.0                 !
 ! R5    R(3,4)                  2.529          -DE/DX =    0.0                 !
 ! R6    R(3,5)                  2.5291         -DE/DX =    0.0                 !
 ! A1    A(5,1,6)              104.4918         -DE/DX =    0.0                 !
 ! A2    A(4,2,6)              104.4892         -DE/DX =    0.0                 !
 ! A3    A(4,3,5)              104.4895         -DE/DX =    0.0                 !
 ! A4    A(2,4,3)              135.5095         -DE/DX =    0.0                 !
 ! A5    A(1,5,3)              135.5106         -DE/DX =    0.0                 !
 ! A6    A(1,6,2)              135.5093         -DE/DX =    0.0                 !
 ! D1    D(6,1,5,3)             -0.0003         -DE/DX =    0.0                 !
 ! D2    D(5,1,6,2)              0.0017         -DE/DX =    0.0                 !
 ! D3    D(6,2,4,3)              0.0044         -DE/DX =    0.0                 !
 ! D4    D(4,2,6,1)             -0.0033         -DE/DX =    0.0                 !
 ! D5    D(5,3,4,2)             -0.0036         -DE/DX =    0.0                 !
 ! D6    D(4,3,5,1)              0.001          -DE/DX =    0.0                 !
 --------------------------------------------------------------------------------
 GradGradGradGradGradGradGradGradGradGradGradGradGradGradGradGradGradGrad


 ----------------------------------------------------------------------

 Electric dipole moment (input orientation):
 (Debye = 10**-18 statcoulomb cm , SI units = C m)
                  (au)            (Debye)         (10**-30 SI)
   Tot        0.159768D-03      0.406089D-03      0.135457D-02
   x          0.774517D-04      0.196863D-03      0.656663D-03
   y          0.934730D-04      0.237585D-03      0.792497D-03
   z          0.103874D-03      0.264021D-03      0.880678D-03

 Dipole polarizability, Alpha (input orientation).
 (esu units = cm**3 , SI units = C**2 m**2 J**-1)
 Alpha(0;0):
               (au)            (10**-24 esu)      (10**-40 SI)
   iso        0.795437D+02      0.117872D+02      0.131150D+02
   aniso      0.168756D+02      0.250071D+01      0.278242D+01
   xx         0.851830D+02      0.126228D+02      0.140448D+02
   yx         0.213507D-01      0.316384D-02      0.352025D-02
   yy         0.851549D+02      0.126186D+02      0.140401D+02
   zx        -0.412243D-04     -0.610881D-05     -0.679696D-05
   zy        -0.183712D-03     -0.272233D-04     -0.302900D-04
   zz         0.682933D+02      0.101200D+02      0.112600D+02

 ----------------------------------------------------------------------

 Dipole orientation:
    17         -1.77362972          4.14229469          2.40504467
    17          4.43779762         -2.08226703          1.43517988
    17         -2.66424581         -2.06003062         -3.84021887
    11          1.51492103         -3.53852197         -2.05441247
    11         -3.79077977          1.77880251         -1.22580213
    11          2.27575786          1.75969667          3.28043030

 Electric dipole moment (dipole orientation):
 (Debye = 10**-18 statcoulomb cm , SI units = C m)
                  (au)            (Debye)         (10**-30 SI)
   Tot        0.159768D-03      0.406089D-03      0.135457D-02
   x          0.000000D+00      0.000000D+00      0.000000D+00
   y          0.000000D+00      0.000000D+00      0.000000D+00
   z          0.159768D-03      0.406089D-03      0.135457D-02

 Dipole polarizability, Alpha (dipole orientation).
 (esu units = cm**3 , SI units = C**2 m**2 J**-1)
 Alpha(0;0):
               (au)            (10**-24 esu)      (10**-40 SI)
   iso        0.795437D+02      0.117872D+02      0.131150D+02
   aniso      0.168756D+02      0.250071D+01      0.278242D+01
   xx         0.812066D+02      0.120336D+02      0.133892D+02
   yx        -0.477123D+01     -0.707023D+00     -0.786669D+00
   yy         0.793785D+02      0.117627D+02      0.130877D+02
   zx         0.533510D+01      0.790580D+00      0.879639D+00
   zy         0.641743D+01      0.950965D+00      0.105809D+01
   zz         0.780460D+02      0.115652D+02      0.128681D+02

 ----------------------------------------------------------------------
 1\1\GINC-HRG02\Freq\RB3LYP\6-311+G(2d,p)\Cl3Na3\HASHMI\01-Jul-2023\0\\
 #N Geom=AllCheck Guess=TCheck SCRF=Check GenChk RB3LYP/6-311+G(2d,p) F
 req\\Title Card Required\\0,1\Cl,-0.5646774264,2.6432354342,-0.0000041
 866\Cl,2.5714926021,-0.8326252957,-0.0000062023\Cl,-2.0068488045,-1.81
 06025388,0.0000332449\Na,0.4823057929,-2.2579215188,0.0000784856\Na,-2
 .1965537539,0.7113240336,0.0000126068\Na,1.7142595898,1.5466638855,0.0
 000160515\\Version=EM64L-G16RevB.01\State=1-A\HF=-1867.9422234\RMSD=2.
 322e-09\RMSF=3.287e-06\ZeroPoint=0.0043943\Thermal=0.0149378\Dipole=0.
 0000775,0.0000935,0.0001039\DipoleDeriv=-0.8863169,-0.0123454,-0.00000
 03,-0.0123051,-0.8310266,0.0000016,-0.0000008,0.0000022,-0.6521432,-0.
 8341877,-0.0176783,0.0000034,-0.0177187,-0.8832413,0.0000026,0.000005,
 0.0000023,-0.6521504,-0.8555707,0.0300961,-0.000002,0.0301946,-0.86168
 59,0.0000029,-0.0000032,0.0000026,-0.6521629,0.9408571,0.0366682,-0.00
 00012,0.0368145,0.7763812,-0.0000049,-0.0000012,-0.0000058,0.6521476,0
 .7857142,0.0528399,-0.000001,0.0525327,0.9315341,-0.0000025,-0.0000009
 ,-0.0000023,0.652154,0.849504,-0.0895806,0.000001,-0.089518,0.8680385,
 0.0000002,0.000001,0.0000009,0.652155\Polar=85.1829738,0.0213507,85.15
 48536,-0.0000412,-0.0001837,68.2933233\Quadrupole=-0.9173089,-0.915018
 3,1.8323272,-0.0001338,0.000295,-0.0002552\PG=C01 [X(Cl3Na3)]\NImag=0\
 \0.04304782,0.00267109,0.03111425,0.00000009,-0.00000029,0.00205280,-0
 .00018489,0.00161768,0.,0.03175067,0.00242125,-0.00060169,0.,0.0038110
 2,0.04237349,0.,0.,0.00103682,-0.00000105,-0.00000031,0.00205522,0.001
 25111,-0.00078559,0.00000001,-0.00224530,-0.00123161,0.00000004,0.0364
 0181,-0.00159151,-0.00203601,0.00000003,-0.00042714,0.00145950,0.,-0.0
 0649747,0.03776853,0.00000002,0.00000003,0.00103665,0.00000001,0.,0.00
 103652,0.00000057,-0.00000037,0.00206155,-0.00141091,-0.00058213,0.000
 00001,-0.02409964,-0.01408022,0.00000088,-0.03287337,0.00477573,-0.000
 00056,0.05673533,-0.00058242,0.00119068,-0.00000004,-0.01473524,-0.012
 02476,0.00000058,0.00543168,-0.00331107,0.00000010,0.00891239,0.016858
 69,0.00000001,-0.00000003,-0.00057894,0.00000091,0.00000059,-0.0017679
 7,-0.00000059,0.00000010,-0.00178678,-0.00000029,-0.00000075,0.0023125
 3,-0.01512108,-0.01568948,0.00000013,0.00104362,-0.00083514,0.,-0.0025
 7066,0.00232352,-0.00000004,-0.00002033,0.00214409,-0.00000004,0.01911
 535,-0.01503172,-0.02106191,0.00000018,-0.00083444,-0.00126495,0.00000
 001,0.00166498,-0.03362479,0.00000024,0.00260455,-0.00051100,0.0000000
 4,0.01280246,0.05454833,0.00000013,0.00000018,-0.00177802,0.,0.,-0.000
 57881,-0.00000003,0.00000025,-0.00176896,-0.00000005,0.00000004,0.0009
 1103,-0.00000005,-0.00000047,0.00230421,-0.02758206,0.01276843,-0.0000
 0024,-0.00626447,0.00991470,0.00000014,0.00003640,0.00141687,0.,0.0016
 6891,-0.00117051,0.,-0.00244689,-0.00120583,0.,0.03458810,0.01211331,-
 0.00860532,0.00000012,0.01056813,-0.02994158,-0.00000028,0.00141802,-0
 .00025615,0.,-0.00163032,-0.00220254,0.00000006,-0.00074546,0.00191433
 ,0.,-0.02172367,0.03909126,-0.00000024,0.00000013,-0.00176931,0.000000
 14,-0.00000028,-0.00178178,0.,0.,-0.00057897,0.,0.00000006,0.00091013,
 0.,0.,0.00091056,0.00000012,0.00000010,0.00230936\\-0.00000255,-0.0000
 0268,-0.00000015,0.00000563,0.00000399,-0.00000030,-0.00000424,0.00000
 214,-0.00000022,-0.00000515,-0.00000732,0.00000031,0.00000352,0.000003
 06,0.00000013,0.00000278,0.00000080,0.00000023\\\@


 SCIENCE AT ITS BEST PROVIDES US WITH BETTER QUESTIONS, 
 NOT ABSOLUTE ANSWERS

                                    -- NORMAN COUSINS, 1976
 Job cpu time:       0 days  0 hours 21 minutes 33.1 seconds.
 Elapsed time:       0 days  0 hours  5 minutes 23.7 seconds.
 File lengths (MBytes):  RWF=     42 Int=      0 D2E=      0 Chk=      5 Scr=      1
 Normal termination of Gaussian 16 at Sat Jul  1 11:02:30 2023.
