 Title Card Required
GAUSSIAN             42 MOL ORBITALS    345 PRIMITIVES        6 NUCLEI
  Cl   1    (CENTRE  1)  -2.11166921  4.65072533 -0.00004317  CHARGE = 17.0
  Cl   2    (CENTRE  2)   5.08361221 -0.49665857 -0.00004698  CHARGE = 17.0
  Cl   3    (CENTRE  3)  -2.97196647 -4.15411660  0.00002757  CHARGE = 17.0
  Na   4    (CENTRE  4)   1.80376493 -3.97282636  0.00011306  CHARGE = 11.0
  Na   5    (CENTRE  5)  -4.34240632  0.42439714 -0.00001143  CHARGE = 11.0
  Na   6    (CENTRE  6)   2.53867767  3.54850624 -0.00000492  CHARGE = 11.0
CENTRE ASSIGNMENTS    1  1  1  1  1  1  1  1  1  1  1  1  1  1  1  1  1  1  1  1
CENTRE ASSIGNMENTS    1  1  1  1  1  1  1  1  1  1  1  1  1  1  1  1  1  1  1  1
CENTRE ASSIGNMENTS    1  1  1  1  1  1  1  1  1  1  1  1  1  1  1  1  1  1  1  2
CENTRE ASSIGNMENTS    2  2  2  2  2  2  2  2  2  2  2  2  2  2  2  2  2  2  2  2
CENTRE ASSIGNMENTS    2  2  2  2  2  2  2  2  2  2  2  2  2  2  2  2  2  2  2  2
CENTRE ASSIGNMENTS    2  2  2  2  2  2  2  2  2  2  2  2  2  2  2  2  2  2  3  3
CENTRE ASSIGNMENTS    3  3  3  3  3  3  3  3  3  3  3  3  3  3  3  3  3  3  3  3
CENTRE ASSIGNMENTS    3  3  3  3  3  3  3  3  3  3  3  3  3  3  3  3  3  3  3  3
CENTRE ASSIGNMENTS    3  3  3  3  3  3  3  3  3  3  3  3  3  3  3  3  3  4  4  4
CENTRE ASSIGNMENTS    4  4  4  4  4  4  4  4  4  4  4  4  4  4  4  4  4  4  4  4
CENTRE ASSIGNMENTS    4  4  4  4  4  4  4  4  4  4  4  4  4  4  4  4  4  4  4  4
CENTRE ASSIGNMENTS    4  4  4  4  4  4  4  4  4  4  4  4  4  5  5  5  5  5  5  5
CENTRE ASSIGNMENTS    5  5  5  5  5  5  5  5  5  5  5  5  5  5  5  5  5  5  5  5
CENTRE ASSIGNMENTS    5  5  5  5  5  5  5  5  5  5  5  5  5  5  5  5  5  5  5  5
CENTRE ASSIGNMENTS    5  5  5  5  5  5  5  5  5  6  6  6  6  6  6  6  6  6  6  6
CENTRE ASSIGNMENTS    6  6  6  6  6  6  6  6  6  6  6  6  6  6  6  6  6  6  6  6
CENTRE ASSIGNMENTS    6  6  6  6  6  6  6  6  6  6  6  6  6  6  6  6  6  6  6  6
CENTRE ASSIGNMENTS    6  6  6  6  6
TYPE ASSIGNMENTS      1  1  1  1  1  1  1  1  1  1  1  1  1  1  2  3  4  2  2  2
TYPE ASSIGNMENTS      2  2  3  3  3  3  3  4  4  4  4  4  2  2  3  3  4  4  2  3
TYPE ASSIGNMENTS      4  2  3  4  2  3  4  5  6  7  8  9 10  5  6  7  8  9 10  1
TYPE ASSIGNMENTS      1  1  1  1  1  1  1  1  1  1  1  1  1  2  3  4  2  2  2  2
TYPE ASSIGNMENTS      2  3  3  3  3  3  4  4  4  4  4  2  2  3  3  4  4  2  3  4
TYPE ASSIGNMENTS      2  3  4  2  3  4  5  6  7  8  9 10  5  6  7  8  9 10  1  1
TYPE ASSIGNMENTS      1  1  1  1  1  1  1  1  1  1  1  1  2  3  4  2  2  2  2  2
TYPE ASSIGNMENTS      3  3  3  3  3  4  4  4  4  4  2  2  3  3  4  4  2  3  4  2
TYPE ASSIGNMENTS      3  4  2  3  4  5  6  7  8  9 10  5  6  7  8  9 10  1  1  1
TYPE ASSIGNMENTS      1  1  1  1  1  1  1  1  1  1  1  2  3  4  2  2  2  2  3  3
TYPE ASSIGNMENTS      3  3  4  4  4  4  2  2  3  3  4  4  2  3  4  2  3  4  2  3
TYPE ASSIGNMENTS      4  5  6  7  8  9 10  5  6  7  8  9 10  1  1  1  1  1  1  1
TYPE ASSIGNMENTS      1  1  1  1  1  1  1  2  3  4  2  2  2  2  3  3  3  3  4  4
TYPE ASSIGNMENTS      4  4  2  2  3  3  4  4  2  3  4  2  3  4  2  3  4  5  6  7
TYPE ASSIGNMENTS      8  9 10  5  6  7  8  9 10  1  1  1  1  1  1  1  1  1  1  1
TYPE ASSIGNMENTS      1  1  1  2  3  4  2  2  2  2  3  3  3  3  4  4  4  4  2  2
TYPE ASSIGNMENTS      3  3  4  4  2  3  4  2  3  4  2  3  4  5  6  7  8  9 10  5
TYPE ASSIGNMENTS      6  7  8  9 10
EXPONENTS  0.1058190D+06 0.1587200D+05 0.3619650D+04 0.1030800D+04 0.3399080D+03
EXPONENTS  0.1245380D+03 0.1245380D+03 0.4951350D+02 0.2080560D+02 0.6583460D+01
EXPONENTS  0.2564680D+01 0.5597630D+00 0.1832730D+00 0.4830000D-01 0.4830000D-01
EXPONENTS  0.4830000D-01 0.4830000D-01 0.5897760D+03 0.1398490D+03 0.4514130D+02
EXPONENTS  0.1687330D+02 0.2771520D+01 0.5897760D+03 0.1398490D+03 0.4514130D+02
EXPONENTS  0.1687330D+02 0.2771520D+01 0.5897760D+03 0.1398490D+03 0.4514130D+02
EXPONENTS  0.1687330D+02 0.2771520D+01 0.6741100D+01 0.2771520D+01 0.6741100D+01
EXPONENTS  0.2771520D+01 0.6741100D+01 0.2771520D+01 0.1023870D+01 0.1023870D+01
EXPONENTS  0.1023870D+01 0.3813680D+00 0.3813680D+00 0.3813680D+00 0.1094370D+00
EXPONENTS  0.1094370D+00 0.1094370D+00 0.1500000D+01 0.1500000D+01 0.1500000D+01
EXPONENTS  0.1500000D+01 0.1500000D+01 0.1500000D+01 0.3750000D+00 0.3750000D+00
EXPONENTS  0.3750000D+00 0.3750000D+00 0.3750000D+00 0.3750000D+00 0.1058190D+06
EXPONENTS  0.1587200D+05 0.3619650D+04 0.1030800D+04 0.3399080D+03 0.1245380D+03
EXPONENTS  0.1245380D+03 0.4951350D+02 0.2080560D+02 0.6583460D+01 0.2564680D+01
EXPONENTS  0.5597630D+00 0.1832730D+00 0.4830000D-01 0.4830000D-01 0.4830000D-01
EXPONENTS  0.4830000D-01 0.5897760D+03 0.1398490D+03 0.4514130D+02 0.1687330D+02
EXPONENTS  0.2771520D+01 0.5897760D+03 0.1398490D+03 0.4514130D+02 0.1687330D+02
EXPONENTS  0.2771520D+01 0.5897760D+03 0.1398490D+03 0.4514130D+02 0.1687330D+02
EXPONENTS  0.2771520D+01 0.6741100D+01 0.2771520D+01 0.6741100D+01 0.2771520D+01
EXPONENTS  0.6741100D+01 0.2771520D+01 0.1023870D+01 0.1023870D+01 0.1023870D+01
EXPONENTS  0.3813680D+00 0.3813680D+00 0.3813680D+00 0.1094370D+00 0.1094370D+00
EXPONENTS  0.1094370D+00 0.1500000D+01 0.1500000D+01 0.1500000D+01 0.1500000D+01
EXPONENTS  0.1500000D+01 0.1500000D+01 0.3750000D+00 0.3750000D+00 0.3750000D+00
EXPONENTS  0.3750000D+00 0.3750000D+00 0.3750000D+00 0.1058190D+06 0.1587200D+05
EXPONENTS  0.3619650D+04 0.1030800D+04 0.3399080D+03 0.1245380D+03 0.1245380D+03
EXPONENTS  0.4951350D+02 0.2080560D+02 0.6583460D+01 0.2564680D+01 0.5597630D+00
EXPONENTS  0.1832730D+00 0.4830000D-01 0.4830000D-01 0.4830000D-01 0.4830000D-01
EXPONENTS  0.5897760D+03 0.1398490D+03 0.4514130D+02 0.1687330D+02 0.2771520D+01
EXPONENTS  0.5897760D+03 0.1398490D+03 0.4514130D+02 0.1687330D+02 0.2771520D+01
EXPONENTS  0.5897760D+03 0.1398490D+03 0.4514130D+02 0.1687330D+02 0.2771520D+01
EXPONENTS  0.6741100D+01 0.2771520D+01 0.6741100D+01 0.2771520D+01 0.6741100D+01
EXPONENTS  0.2771520D+01 0.1023870D+01 0.1023870D+01 0.1023870D+01 0.3813680D+00
EXPONENTS  0.3813680D+00 0.3813680D+00 0.1094370D+00 0.1094370D+00 0.1094370D+00
EXPONENTS  0.1500000D+01 0.1500000D+01 0.1500000D+01 0.1500000D+01 0.1500000D+01
EXPONENTS  0.1500000D+01 0.3750000D+00 0.3750000D+00 0.3750000D+00 0.3750000D+00
EXPONENTS  0.3750000D+00 0.3750000D+00 0.3616640D+05 0.5372580D+04 0.1213210D+04
EXPONENTS  0.3396230D+03 0.1095530D+03 0.3877730D+02 0.3877730D+02 0.1457590D+02
EXPONENTS  0.5269930D+01 0.1827770D+01 0.6199480D+00 0.5724000D-01 0.2404800D-01
EXPONENTS  0.7600000D-02 0.7600000D-02 0.7600000D-02 0.7600000D-02 0.1446450D+03
EXPONENTS  0.3390740D+02 0.1062850D+02 0.3823890D+01 0.1446450D+03 0.3390740D+02
EXPONENTS  0.1062850D+02 0.3823890D+01 0.1446450D+03 0.3390740D+02 0.1062850D+02
EXPONENTS  0.3823890D+01 0.1444290D+01 0.5526210D+00 0.1444290D+01 0.5526210D+00
EXPONENTS  0.1444290D+01 0.5526210D+00 0.1887200D+00 0.1887200D+00 0.1887200D+00
EXPONENTS  0.4650100D-01 0.4650100D-01 0.4650100D-01 0.1628500D-01 0.1628500D-01
EXPONENTS  0.1628500D-01 0.3500000D+00 0.3500000D+00 0.3500000D+00 0.3500000D+00
EXPONENTS  0.3500000D+00 0.3500000D+00 0.8750000D-01 0.8750000D-01 0.8750000D-01
EXPONENTS  0.8750000D-01 0.8750000D-01 0.8750000D-01 0.3616640D+05 0.5372580D+04
EXPONENTS  0.1213210D+04 0.3396230D+03 0.1095530D+03 0.3877730D+02 0.3877730D+02
EXPONENTS  0.1457590D+02 0.5269930D+01 0.1827770D+01 0.6199480D+00 0.5724000D-01
EXPONENTS  0.2404800D-01 0.7600000D-02 0.7600000D-02 0.7600000D-02 0.7600000D-02
EXPONENTS  0.1446450D+03 0.3390740D+02 0.1062850D+02 0.3823890D+01 0.1446450D+03
EXPONENTS  0.3390740D+02 0.1062850D+02 0.3823890D+01 0.1446450D+03 0.3390740D+02
EXPONENTS  0.1062850D+02 0.3823890D+01 0.1444290D+01 0.5526210D+00 0.1444290D+01
EXPONENTS  0.5526210D+00 0.1444290D+01 0.5526210D+00 0.1887200D+00 0.1887200D+00
EXPONENTS  0.1887200D+00 0.4650100D-01 0.4650100D-01 0.4650100D-01 0.1628500D-01
EXPONENTS  0.1628500D-01 0.1628500D-01 0.3500000D+00 0.3500000D+00 0.3500000D+00
EXPONENTS  0.3500000D+00 0.3500000D+00 0.3500000D+00 0.8750000D-01 0.8750000D-01
EXPONENTS  0.8750000D-01 0.8750000D-01 0.8750000D-01 0.8750000D-01 0.3616640D+05
EXPONENTS  0.5372580D+04 0.1213210D+04 0.3396230D+03 0.1095530D+03 0.3877730D+02
EXPONENTS  0.3877730D+02 0.1457590D+02 0.5269930D+01 0.1827770D+01 0.6199480D+00
EXPONENTS  0.5724000D-01 0.2404800D-01 0.7600000D-02 0.7600000D-02 0.7600000D-02
EXPONENTS  0.7600000D-02 0.1446450D+03 0.3390740D+02 0.1062850D+02 0.3823890D+01
EXPONENTS  0.1446450D+03 0.3390740D+02 0.1062850D+02 0.3823890D+01 0.1446450D+03
EXPONENTS  0.3390740D+02 0.1062850D+02 0.3823890D+01 0.1444290D+01 0.5526210D+00
EXPONENTS  0.1444290D+01 0.5526210D+00 0.1444290D+01 0.5526210D+00 0.1887200D+00
EXPONENTS  0.1887200D+00 0.1887200D+00 0.4650100D-01 0.4650100D-01 0.4650100D-01
EXPONENTS  0.1628500D-01 0.1628500D-01 0.1628500D-01 0.3500000D+00 0.3500000D+00
EXPONENTS  0.3500000D+00 0.3500000D+00 0.3500000D+00 0.3500000D+00 0.8750000D-01
EXPONENTS  0.8750000D-01 0.8750000D-01 0.8750000D-01 0.8750000D-01 0.8750000D-01
MO    1     MO 0.0        OCC NO =    2.0000000  ORB. ENERGY = -101.475187
  0.12697113D+01  0.23710668D+01  0.40362144D+01  0.62568086D+01  0.84254389D+01
  0.63859563D+01  0.23308885D+01  0.54296056D+01  0.13244086D+01  0.43932397D-01
 -0.57320606D-02  0.69925873D-03 -0.22029501D-03  0.25182443D-04  0.25688938D-05
 -0.56537475D-05  0.63929548D-10  0.14168055D-03  0.18143105D-03  0.19412927D-03
  0.15447119D-03  0.35552371D-04 -0.31358664D-03 -0.40156784D-03 -0.42967329D-03
 -0.34189662D-03 -0.78689339D-04  0.63367971D-08  0.81146759D-08  0.86826162D-08
  0.69088707D-08  0.15901136D-08 -0.45155329D-04  0.93832883D-05  0.10074390D-03
 -0.20934607D-04 -0.20171749D-08  0.41916945D-09 -0.15616474D-04  0.34779274D-04
 -0.66645881D-09  0.73504750D-05 -0.16403814D-04  0.26060681D-09 -0.87180660D-05
  0.19384089D-04 -0.26922412D-09  0.25433940D-04  0.70312683D-05 -0.32465208D-04
  0.21048578D-04  0.52807657D-09 -0.81735871D-09 -0.70758016D-05 -0.20120897D-05
  0.90878912D-05 -0.57915340D-05 -0.14543944D-09  0.22572349D-09 -0.31610408D-01
 -0.59029470D-01 -0.10048456D+00 -0.15576790D+00 -0.20975757D+00 -0.15898313D+00
 -0.58027892D-01 -0.13517101D+00 -0.32971392D-01 -0.10987716D-02  0.14784368D-03
 -0.21517644D-04  0.77457005D-05  0.89538452D-05 -0.12144216D-05 -0.60609465D-07
 -0.26310512D-10  0.11799546D-05  0.15110076D-05  0.16167620D-05  0.12864785D-05
  0.29608992D-06  0.56681375D-04  0.72584144D-04  0.77664255D-04  0.61798458D-04
  0.14223246D-04 -0.79724874D-09 -0.10209283D-08 -0.10923823D-08 -0.86922279D-09
 -0.20005628D-09  0.40861389D-05 -0.84910067D-06 -0.47883402D-04  0.99501826D-05
  0.44795281D-09 -0.93084704D-10 -0.23064575D-07 -0.14068492D-04  0.15036001D-09
  0.15172851D-05  0.75144903D-05 -0.98835230D-10 -0.42390258D-05 -0.56722116D-05
  0.12489752D-09 -0.72374597D-05  0.44191779D-05  0.28182818D-05  0.40437998D-05
  0.59609183D-09  0.14887296D-08  0.20980775D-05 -0.11216590D-05 -0.97641850D-06
 -0.11985222D-05 -0.16650665D-09 -0.40531250D-09 -0.16373651D-01 -0.30576256D-01
 -0.52049283D-01 -0.80685111D-01 -0.10865083D+00 -0.82350543D-01 -0.30056839D-01
 -0.70014838D-01 -0.17078267D-01 -0.57151438D-03  0.78995939D-04 -0.13076831D-04
  0.50738618D-05  0.91419638D-05  0.88072805D-06  0.92076806D-06 -0.25411225D-10
 -0.41682885D-04 -0.53377613D-04 -0.57113474D-04 -0.45445934D-04 -0.10459625D-04
  0.40050847D-04  0.51287684D-04  0.54877272D-04  0.43666559D-04  0.10050092D-04
 -0.16425692D-08 -0.21034154D-08 -0.22506320D-08 -0.17908571D-08 -0.41217536D-09
  0.33125262D-04 -0.68834376D-05 -0.35892210D-04  0.74584100D-05  0.13331082D-08
 -0.27702022D-09  0.10492011D-04 -0.96907593D-05  0.39600845D-09 -0.66023745D-05
  0.40356487D-05 -0.22033240D-09  0.69499498D-05 -0.82246164D-06  0.18395900D-09
  0.16191330D-05 -0.40235866D-05  0.24044536D-05 -0.11182693D-04 -0.69890217D-09
  0.28848686D-09 -0.39086422D-06  0.12492375D-05 -0.85837328D-06  0.30771812D-05
  0.20140259D-09 -0.78947330D-10 -0.80200336D-06 -0.15008319D-05 -0.25662601D-05
 -0.39803833D-05 -0.51638455D-05 -0.17489408D-05  0.61488387D-05  0.45350199D-05
  0.41474282D-06 -0.92212365D-05  0.87838791D-05 -0.15356087D-04  0.48066058D-05
 -0.29556074D-05  0.82207832D-07 -0.18217882D-06  0.50064507D-11  0.35038140D-05
  0.40995528D-05  0.37308373D-05  0.22806742D-05 -0.93809032D-05 -0.10975899D-04
 -0.99887219D-05 -0.61061413D-05  0.42699555D-09  0.49959580D-09  0.45466195D-09
  0.27793647D-09 -0.18142597D-05 -0.36371604D-06  0.49647631D-05  0.99531724D-06
 -0.23559911D-09 -0.47232033D-10  0.92096272D-06 -0.24157641D-05  0.12869767D-09
  0.14591060D-06 -0.38803146D-06  0.15676891D-09 -0.20469363D-06  0.45934854D-06
 -0.16934536D-10 -0.39343226D-06  0.17991604D-06  0.21351622D-06 -0.81601712D-06
 -0.35945531D-10 -0.74712452D-10 -0.84242115D-06  0.27106623D-06  0.57135491D-06
 -0.13322504D-05  0.41167986D-10  0.76014010D-10  0.61508588D-06  0.11510432D-05
  0.19681592D-05  0.30527024D-05  0.39603431D-05  0.13413270D-05 -0.49166697D-05
 -0.36262449D-05 -0.33163229D-06  0.99341840D-05 -0.13957482D-04  0.64268236D-05
 -0.85235385D-05  0.18446743D-05  0.19319018D-06  0.18272087D-07  0.10305725D-11
  0.31462519D-04  0.36811959D-04  0.33501076D-04  0.20479328D-04  0.55337527D-04
  0.64746333D-04  0.58923022D-04  0.36019854D-04 -0.34980728D-09 -0.40928353D-09
 -0.37247241D-09 -0.22769371D-09 -0.18332219D-04 -0.36751751D-05 -0.32223719D-04
 -0.64600913D-05  0.20700730D-09  0.41500053D-10  0.80122845D-05  0.12839336D-04
 -0.77031140D-10 -0.74892405D-06  0.24077140D-05 -0.41139378D-10 -0.55016892D-06
 -0.24309474D-06  0.97617632D-12 -0.44903743D-06  0.46706597D-05 -0.42216223D-05
  0.10100259D-04 -0.20735006D-10 -0.15317887D-09 -0.59272790D-06  0.16160549D-05
 -0.10233270D-05  0.37484425D-05 -0.48060377D-10 -0.18227762D-10  0.59872500D-06
  0.11204262D-05  0.19158075D-05  0.29715025D-05  0.38550006D-05  0.13056486D-05
 -0.47888151D-05 -0.35319468D-05 -0.32300842D-06  0.97113450D-05 -0.13689696D-04
  0.61642967D-05 -0.83660737D-05  0.17888562D-05 -0.13856336D-06 -0.12949387D-06
  0.56022082D-12 -0.62682254D-04 -0.73339853D-04 -0.66743637D-04 -0.40800624D-04
  0.13477680D-04  0.15769233D-04  0.14350942D-04  0.87727821D-05 -0.46051883D-09
 -0.53881891D-09 -0.49035732D-09 -0.29975718D-09  0.36509582D-04  0.73193051D-05
 -0.78341533D-05 -0.15705619D-05  0.27218024D-09  0.54565682D-10 -0.15001044D-04
  0.25993562D-05 -0.12064050D-09 -0.13448097D-05  0.21593794D-05 -0.61865466D-11
  0.54069429D-06  0.24243113D-06  0.25382209D-11  0.74648779D-05 -0.32961753D-05
 -0.41687026D-05 -0.35999806D-05  0.19814467D-09 -0.27874363D-10  0.25161581D-05
 -0.15119856D-05 -0.10041725D-05 -0.16235339D-05  0.39575409D-10 -0.12509488D-10
MO    2     MO 0.0        OCC NO =    2.0000000  ORB. ENERGY = -101.475185
  0.31133612D-01  0.58139099D-01  0.98968899D-01  0.15341838D+00  0.20659369D+00
  0.15658511D+00  0.57155212D-01  0.13313818D+00  0.32475536D-01  0.10722618D-02
 -0.13548448D-03  0.13095063D-04 -0.31722120D-05  0.10060909D-04  0.45089995D-06
 -0.14321458D-05 -0.23262543D-10  0.60998291D-04  0.78112232D-04  0.83579251D-04
  0.66505097D-04  0.15306504D-04  0.44511754D-05  0.57000161D-05  0.60989562D-05
  0.48530187D-05  0.11169483D-05  0.49620874D-09  0.63542719D-09  0.67990028D-09
  0.54100550D-09  0.12451531D-09 -0.49477777D-04  0.10281494D-04 -0.70665884D-05
  0.14684388D-05 -0.33530031D-09  0.69675487D-10 -0.14266037D-04 -0.29651891D-05
 -0.99315486D-10  0.70965595D-05  0.30965373D-05  0.48236475D-10 -0.45367173D-05
 -0.48842990D-05 -0.36162607D-10  0.31685929D-05 -0.43542332D-05  0.11856402D-05
  0.11242165D-04  0.75494942D-09  0.25673306D-09 -0.75466999D-06  0.12714033D-05
 -0.51673329D-06 -0.31692291D-05 -0.20253256D-09 -0.66631578D-10  0.12693131D+01
  0.23703231D+01  0.40349484D+01  0.62548462D+01  0.84227962D+01  0.63839533D+01
  0.23301575D+01  0.54279027D+01  0.13239932D+01  0.43918430D-01 -0.57300747D-02
  0.69888909D-03 -0.22013984D-03  0.25508743D-04 -0.62262524D-05  0.59915363D-06
  0.14916467D-09 -0.34256957D-03 -0.43868236D-03 -0.46938542D-03 -0.37349608D-03
 -0.85962123D-04  0.36443825D-04  0.46668661D-04  0.49934967D-04  0.39733902D-04
  0.91449704D-05  0.16060989D-07  0.20567128D-07  0.22006607D-07  0.17510943D-07
  0.40302373D-08  0.11002298D-03 -0.22862802D-04 -0.13228948D-04  0.27489787D-05
 -0.49431236D-08  0.10271823D-08  0.37947135D-04 -0.44425504D-05 -0.16585659D-08
 -0.17836993D-04  0.21434532D-05  0.66150163D-09  0.21007354D-04 -0.23728373D-05
 -0.70945611D-09  0.22735594D-05  0.30107072D-04 -0.32380632D-04  0.55742192D-05
 -0.32037390D-08 -0.16037555D-08 -0.69951590D-06 -0.83580337D-05  0.90575496D-05
 -0.15377886D-05  0.87756777D-09  0.44882930D-09 -0.36182222D-01 -0.67566905D-01
 -0.11501764D+00 -0.17829662D+00 -0.24009481D+00 -0.18197687D+00 -0.66420608D-01
 -0.15472113D+00 -0.37740125D-01 -0.12571465D-02  0.16867535D-03 -0.24189212D-04
  0.86234772D-05  0.92221421D-05  0.57665995D-06  0.11016248D-05 -0.61304186D-10
  0.46342225D-04  0.59344198D-04  0.63497655D-04  0.50525910D-04  0.11628809D-04
 -0.28751804D-04 -0.36818533D-04 -0.39395436D-04 -0.31347461D-04 -0.72147859D-05
  0.15595074D-08  0.19970494D-08  0.21368215D-08  0.17002966D-08  0.39133238D-09
 -0.42095776D-04  0.87475125D-05  0.19352461D-04 -0.40214461D-05 -0.13819220D-08
  0.28716373D-09 -0.11717232D-04  0.67923934D-05 -0.42440442D-09  0.54727535D-05
 -0.49686287D-05  0.25777668D-09 -0.24963499D-05  0.65337234D-05 -0.24643780D-09
 -0.24999249D-06 -0.27605803D-05  0.30105728D-05 -0.12458999D-04  0.13974178D-08
 -0.62446748D-09  0.20567089D-06  0.83158676D-06 -0.10372576D-05  0.34817528D-05
 -0.37670502D-09  0.14389960D-09  0.56731200D-06  0.10616413D-05  0.18152918D-05
  0.28155982D-05  0.36527422D-05  0.12371458D-05 -0.45474575D-05 -0.33539358D-05
 -0.30672871D-06  0.93427185D-05 -0.13326666D-04  0.55732748D-05 -0.81655915D-05
  0.16737182D-05 -0.39449345D-07  0.17755971D-06 -0.71673416D-11  0.43367932D-04
  0.50741599D-04  0.46177879D-04  0.28228702D-04  0.47222982D-04  0.55252107D-04
  0.50282710D-04  0.30738000D-04 -0.19893113D-08 -0.23275455D-08 -0.21182051D-08
 -0.12948664D-08 -0.25237208D-04 -0.50594615D-05 -0.27531548D-04 -0.55194223D-05
  0.11676492D-08  0.23408597D-09  0.98383946D-05  0.11605651D-04 -0.50529191D-09
  0.25542453D-05  0.75814306D-07  0.15752445D-10 -0.69663940D-07 -0.57160439D-06
  0.26117432D-10  0.91503043D-06  0.32348330D-05 -0.41498634D-05  0.11096794D-04
 -0.42360118D-09 -0.67087768D-09  0.15853566D-06  0.82169863D-06 -0.98023429D-06
  0.42527718D-05 -0.20532994D-09 -0.13580641D-09 -0.78129113D-06 -0.14620720D-05
 -0.24999848D-05 -0.38775875D-05 -0.50304860D-05 -0.17037733D-05  0.59831569D-05
  0.44128227D-05  0.40356749D-06 -0.88850389D-05  0.83097102D-05 -0.15146528D-04
  0.45173560D-05 -0.28942246D-05 -0.19235279D-06  0.20748623D-07  0.73161489D-12
 -0.87684112D-05 -0.10259267D-04 -0.93365446D-05 -0.57074630D-05  0.39118951D-05
  0.45770181D-05  0.41653592D-05  0.25462990D-05 -0.39704929D-09 -0.46455791D-09
 -0.42277538D-09 -0.25844410D-09  0.45611164D-05  0.91439565D-06 -0.22247985D-05
 -0.44601932D-06  0.20786898D-09  0.41672799D-10 -0.22715631D-05  0.93386531D-06
 -0.94912540D-10 -0.43332364D-06  0.16451772D-06  0.10434784D-09  0.48139294D-06
 -0.62580880D-07 -0.40896971D-12  0.37991403D-06 -0.44899795D-06  0.69083921D-07
  0.31169873D-06 -0.18652289D-09  0.95187783D-10  0.55164927D-06 -0.10882021D-05
  0.53655285D-06 -0.15006110D-06  0.71584114D-10 -0.10657188D-10  0.64051551D-06
  0.11986310D-05  0.20495293D-05  0.31789109D-05  0.41240764D-05  0.13967818D-05
 -0.51191152D-05 -0.37755567D-05 -0.34528736D-06  0.10332910D-04 -0.14503519D-04
  0.67034223D-05 -0.88559384D-05  0.19220462D-05 -0.86374124D-07 -0.18187965D-06
 -0.16008125D-11  0.29851707D-04  0.34927267D-04  0.31785894D-04  0.19430831D-04
 -0.54466025D-04 -0.63726654D-04 -0.57995053D-04 -0.35452583D-04 -0.41288967D-09
 -0.48309156D-09 -0.43964211D-09 -0.26875479D-09 -0.17377123D-04 -0.34837010D-05
  0.31723684D-04  0.63598462D-05  0.24831827D-09  0.49781922D-10  0.65500758D-05
 -0.13271419D-04 -0.10808921D-09  0.24094319D-05 -0.47452932D-06 -0.99207615D-11
  0.85718382D-07  0.60858739D-06  0.80222298D-11 -0.70323903D-06  0.50829189D-05
 -0.43796798D-05 -0.96248109D-05 -0.33120083D-10  0.13398162D-09 -0.46372664D-06
  0.15266363D-05 -0.10629097D-05 -0.38544837D-05 -0.38212829D-10  0.46140138D-10
MO    3     MO 0.0        OCC NO =    2.0000000  ORB. ENERGY = -101.475183
  0.17262203D-01  0.32235544D-01  0.54873853D-01  0.85063667D-01  0.11454701D+00
  0.86819478D-01  0.31690674D-01  0.73820715D-01  0.18006610D-01  0.59202018D-03
 -0.72570267D-04  0.52219732D-05 -0.63766675D-06  0.10334571D-04  0.77670559D-06
 -0.12951219D-05 -0.93818456D-11 -0.41881423D-04 -0.53631854D-04 -0.57385509D-04
 -0.45662396D-04 -0.10509445D-04 -0.38943313D-04 -0.49869415D-04 -0.53359739D-04
 -0.42459038D-04 -0.97721751D-05 -0.47220068D-09 -0.60468332D-09 -0.64700467D-09
 -0.51483003D-09 -0.11849089D-09  0.35716263D-04 -0.74218481D-05  0.31011812D-04
 -0.64442622D-05  0.43259022D-09 -0.89892353D-10  0.11029913D-04  0.82071016D-05
  0.13826712D-09 -0.67045304D-05 -0.29332343D-05 -0.96599088D-10  0.65264270D-05
 -0.31398894D-06  0.10811655D-09  0.43490793D-05 -0.60035810D-05  0.16545017D-05
  0.93485789D-05 -0.43271968D-09  0.59607591D-10 -0.11343594D-05  0.17931232D-05
 -0.65876378D-06 -0.25431646D-05  0.12521972D-09 -0.27899725D-10  0.35766374D-01
  0.66790348D-01  0.11369573D+00  0.17624743D+00  0.23733536D+00  0.17988538D+00
  0.65659920D-01  0.15294917D+00  0.37307903D-01  0.12323396D-02 -0.15617760D-03
  0.15469623D-04 -0.38787195D-05  0.10564948D-04 -0.15471228D-05  0.32574220D-06
 -0.37279451D-10 -0.28216038D-04 -0.36132451D-04 -0.38661335D-04 -0.30763327D-04
 -0.70803445D-05 -0.52546206D-04 -0.67288794D-04 -0.71998288D-04 -0.57289975D-04
 -0.13185594D-04  0.24752357D-08  0.31696983D-08  0.33915432D-08  0.26986951D-08
  0.62111912D-09  0.19318219D-04 -0.40143306D-05  0.44347992D-04 -0.92155235D-05
 -0.18330824D-08  0.38091497D-09  0.47446222D-05  0.13237172D-04 -0.54293013D-09
 -0.88659730D-06 -0.73747171D-05  0.27850225D-09 -0.20433059D-05  0.61265273D-05
 -0.20635982D-09 -0.76415844D-05  0.64877859D-05  0.11537984D-05  0.10907463D-05
 -0.94568867D-10 -0.20248600D-08  0.22239869D-05 -0.17081175D-05 -0.51586939D-06
 -0.22775452D-06  0.29543865D-10  0.53024304D-09  0.12695893D+01  0.23708388D+01
  0.40358263D+01  0.62562071D+01  0.84246289D+01  0.63853424D+01  0.23306645D+01
  0.54290838D+01  0.13242813D+01  0.43927752D-01 -0.57310829D-02  0.69885047D-03
 -0.22008293D-03  0.25958803D-04  0.36746992D-05  0.51410524D-05  0.10782230D-10
  0.20149706D-03  0.25802994D-03  0.27608927D-03  0.21968782D-03  0.50562329D-04
  0.28024388D-03  0.35887030D-03  0.38398738D-03  0.30554375D-03  0.70322530D-04
  0.58928570D-08  0.75461821D-08  0.80743339D-08  0.64248525D-08  0.14787142D-08
 -0.65335963D-04  0.13576829D-04 -0.90162232D-04  0.18735734D-04 -0.18138129D-08
  0.37691077D-09 -0.22456202D-04 -0.31043813D-04 -0.58679106D-09  0.10532613D-04
  0.14534558D-04  0.19524767D-09 -0.12288138D-04 -0.17026502D-04 -0.17586381D-09
  0.20816740D-04  0.11477394D-04 -0.32294134D-04 -0.27446796D-04  0.23249564D-08
 -0.52078557D-09 -0.57970145D-05 -0.32276187D-05  0.90246332D-05  0.75544563D-05
 -0.63960145D-09  0.15235999D-09  0.61009951D-06  0.11417119D-05  0.19522038D-05
  0.30279548D-05  0.39282374D-05  0.13304532D-05 -0.48870201D-05 -0.36043770D-05
 -0.32963240D-06  0.99987980D-05 -0.14209542D-04  0.60885807D-05 -0.86996364D-05
  0.18073526D-05 -0.11114892D-06  0.15906955D-06 -0.58252770D-11 -0.61799164D-04
 -0.72306615D-04 -0.65803329D-04 -0.40225810D-04  0.12099404D-05  0.14156614D-05
  0.12883363D-05  0.78756456D-06 -0.11803813D-08 -0.13810766D-08 -0.12568620D-08
 -0.76832423D-09  0.35999161D-04  0.72169778D-05 -0.73445222D-06 -0.14724025D-06
  0.69507348D-09  0.13934575D-09 -0.14695719D-04  0.91698077D-06 -0.32078282D-09
 -0.15992488D-05 -0.18669854D-05  0.54218171D-10  0.47564935D-06 -0.36225287D-06
  0.19993150D-10  0.77984312D-05 -0.34046056D-05 -0.43938256D-05 -0.18145160D-06
  0.43885799D-09 -0.14687358D-09  0.26656268D-05 -0.16212928D-05 -0.10443341D-05
  0.16717325D-06  0.11086182D-09  0.64512625D-10  0.59007327D-06  0.11042357D-05
  0.18881236D-05  0.29285636D-05  0.37992948D-05  0.12867817D-05 -0.47306133D-05
 -0.34890206D-05 -0.31908268D-06  0.97276644D-05 -0.13886971D-04  0.57790609D-05
 -0.85100290D-05  0.17390867D-05  0.18085740D-06 -0.53812885D-07  0.73027805D-12
  0.20508803D-04  0.23995829D-04  0.21837634D-04  0.13349424D-04 -0.58882836D-04
 -0.68894437D-04 -0.62698044D-04 -0.38327538D-04  0.60422803D-09  0.70696237D-09
  0.64337789D-09  0.39329920D-09 -0.11982460D-04 -0.24021990D-05  0.34290931D-04
  0.68745183D-05 -0.34814156D-09 -0.69794124D-10  0.54620566D-05 -0.13793152D-04
  0.14642565D-09 -0.12460897D-05 -0.21496644D-05  0.79222558D-12 -0.48145899D-06
  0.33598678D-06 -0.14942532D-11 -0.21692949D-05  0.64998111D-05 -0.43305163D-05
 -0.71387119D-05  0.11275863D-09 -0.20898068D-09 -0.12092378D-05  0.22309738D-05
 -0.10217361D-05 -0.25462901D-05  0.30366443D-11 -0.66782908D-10 -0.75385968D-06
 -0.14107380D-05 -0.24122093D-05 -0.37414438D-05 -0.48538636D-05 -0.16439531D-05
  0.57635281D-05  0.42508375D-05  0.38875339D-06 -0.84369269D-05  0.76744895D-05
 -0.14868863D-04  0.41284671D-05 -0.28125256D-05  0.10801357D-06  0.15005449D-06
  0.16330090D-12  0.52871533D-05  0.61861057D-05  0.56297249D-05  0.34414709D-05
  0.59531111D-05  0.69652935D-05  0.63388322D-05  0.38749507D-05 -0.11384906D-09
 -0.13320634D-09 -0.12122571D-09 -0.74105708D-10 -0.27595604D-05 -0.55322641D-06
 -0.30203533D-05 -0.60550920D-06  0.55641960D-10  0.11154893D-10  0.13474630D-05
  0.15482665D-05 -0.16171369D-10  0.31457551D-06  0.38149556D-06  0.12746820D-09
 -0.27204600D-06 -0.37291718D-06 -0.18958872D-11 -0.66923884D-07  0.19339271D-06
 -0.12646883D-06  0.36612316D-06 -0.53364236D-10  0.18469222D-09 -0.51029368D-06
  0.20398812D-07  0.48989487D-06  0.14102836D-05  0.20067151D-10 -0.89677393D-10
MO    4     MO 0.0        OCC NO =    2.0000000  ORB. ENERGY =  -38.453128
 -0.65689116D-06 -0.12266826D-05 -0.20881546D-05 -0.32369896D-05 -0.43589407D-05
 -0.33038047D-05  0.10633140D-04  0.24768991D-04  0.60417398D-05 -0.62547216D-04
  0.68044392D-04 -0.59990652D-04  0.52239103D-04  0.29873044D-04  0.39497633D-05
  0.37297331D-06  0.22840852D-10  0.89363725D-04  0.11443599D-03  0.12244529D-03
  0.97431307D-04  0.22424337D-04 -0.53491846D-05 -0.68499747D-05 -0.73293995D-05
 -0.58320985D-05 -0.13422887D-05 -0.80258288D-08 -0.10277590D-07 -0.10996911D-07
 -0.87503848D-08 -0.20139479D-08 -0.68097625D-04  0.14150703D-04  0.44880498D-05
 -0.93261785D-06  0.61139816D-08 -0.12704869D-08 -0.24016369D-04  0.67737924D-06
  0.22058535D-08  0.67966094D-05  0.31592712D-05 -0.13869156D-08  0.22572276D-04
 -0.90765353D-05  0.12885227D-08 -0.44304507D-04 -0.38558685D-05  0.48160375D-04
  0.56609300D-05 -0.47665153D-08  0.33832234D-08  0.15916416D-04 -0.72309012D-06
 -0.15193325D-04 -0.32531352D-05  0.14489332D-08 -0.99541526D-09  0.27535961D-06
  0.51420823D-06  0.87532527D-06  0.13569008D-05  0.18272071D-05  0.13849088D-05
 -0.46749473D-05 -0.10889890D-04 -0.26563005D-05  0.28063207D-04 -0.32098345D-04
  0.35165700D-04 -0.33445416D-04 -0.72065262D-04  0.12226774D-04  0.14316275D-04
 -0.37746098D-09  0.19980186D-03  0.25585912D-03  0.27376652D-03  0.21783958D-03
  0.50136946D-04  0.30801506D-03  0.39443308D-03  0.42203917D-03  0.33582206D-03
  0.77291245D-04 -0.55710223D-08 -0.71340521D-08 -0.76333593D-08 -0.60739633D-08
 -0.13979552D-08 -0.15158433D-03  0.31499260D-04 -0.23407627D-03  0.48641106D-04
  0.42364085D-08 -0.88032672D-09 -0.55166575D-04 -0.83936118D-04  0.15021789D-08
  0.24507071D-04  0.28619355D-04 -0.27713183D-09  0.14338238D-04  0.68101982D-04
 -0.22447098D-08  0.48829919D-05  0.30581381D-04 -0.35464373D-04  0.14851407D-03
 -0.62887614D-08 -0.14850063D-07 -0.32304142D-05 -0.93085355D-05  0.12538950D-04
 -0.62763167D-04  0.24244699D-08  0.50282574D-08  0.57431782D-06  0.10724846D-05
  0.18256668D-05  0.28300895D-05  0.38110078D-05  0.28885058D-05 -0.95841309D-05
 -0.22325414D-04 -0.54456939D-05  0.57121566D-04 -0.64214591D-04  0.65687743D-04
 -0.60937709D-04 -0.10477600D-03 -0.18031882D-04 -0.51122897D-05 -0.66342468D-10
 -0.33834166D-03 -0.43326824D-03 -0.46359238D-03 -0.36888648D-03 -0.84901200D-04
 -0.48723681D-04 -0.62393805D-04 -0.66760703D-04 -0.53122360D-04 -0.12226396D-04
  0.27031495D-08  0.34615567D-08  0.37038285D-08  0.29471845D-08  0.67831030D-09
  0.25699590D-03 -0.53403811D-04  0.36884498D-04 -0.76646076D-05 -0.20494688D-08
  0.42588012D-09  0.92638677D-04  0.13796198D-04 -0.77888846D-09 -0.35605957D-04
 -0.95971342D-05  0.88077074D-09 -0.51754560D-04  0.17668465D-04 -0.23133193D-08
  0.94218056D-04 -0.31939995D-04 -0.62278061D-04 -0.39832814D-04  0.11802217D-07
 -0.27690633D-08 -0.36657713D-04  0.15225113D-04  0.21432600D-04  0.10455440D-04
 -0.39046164D-08  0.68086962D-09  0.67801872D+00  0.12688128D+01  0.21695325D+01
  0.33650413D+01  0.43655477D+01  0.14785656D+01  0.26419032D+01  0.19485116D+01
  0.17819794D+00  0.62049183D-02 -0.17479350D-02  0.29803435D-03  0.30423926D-04
 -0.20597612D-04  0.17526822D-06 -0.51169924D-06 -0.62202408D-11  0.17993360D-03
  0.21052696D-03  0.19159208D-03  0.11712092D-03 -0.39322669D-03 -0.46008537D-03
 -0.41870511D-03 -0.25595593D-03  0.31240348D-07  0.36552013D-07  0.33264510D-07
  0.20334714D-07  0.73147639D-05  0.14664366D-05 -0.17156204D-04 -0.34394120D-05
  0.17054035D-08  0.34189295D-09 -0.37899225D-05  0.76640235D-05 -0.11871966D-08
 -0.17642011D-04  0.46235497D-04 -0.23708006D-08  0.10394062D-05 -0.28783324D-05
  0.14095135D-09  0.11107777D-09 -0.98971847D-05  0.98970736D-05  0.70197350D-05
  0.24784612D-10  0.79766469D-09  0.14906132D-04  0.14753519D-05 -0.16381484D-04
  0.17080215D-04 -0.31010116D-09 -0.10992588D-08 -0.38182387D-01 -0.71452747D-01
 -0.12217646D+00 -0.18950112D+00 -0.24584429D+00 -0.83264905D-01 -0.14876623D+00
 -0.10972118D+00 -0.10034371D-01 -0.36580261D-03  0.11311673D-03 -0.10329110D-04