 Title Card Required
GAUSSIAN             36 MOL ORBITALS    476 PRIMITIVES       17 NUCLEI
  C    1    (CENTRE  1)   0.86637180  1.78666356  0.12541998  CHARGE =  6.0
  C    2    (CENTRE  2)   3.49658685  1.86265006 -0.00630817  CHARGE =  6.0
  C    3    (CENTRE  3)   4.89677671 -0.35121286 -0.14683772  CHARGE =  6.0
  C    4    (CENTRE  4)   3.67928640 -2.68163850 -0.11292198  CHARGE =  6.0
  C    5    (CENTRE  5)   1.06448016 -2.76837349  0.00999970  CHARGE =  6.0
  C    6    (CENTRE  6)  -0.38004010 -0.55878427  0.08546004  CHARGE =  6.0
  H    7    (CENTRE  7)   4.44834994  3.67791894  0.02596523  CHARGE =  1.0
  H    8    (CENTRE  8)   6.93896089 -0.25234906 -0.25526297  CHARGE =  1.0
  H    9    (CENTRE  9)   4.76167047 -4.41596037 -0.19715476  CHARGE =  1.0
  H   10    (CENTRE 10)   0.06431628 -4.55190282  0.01265187  CHARGE =  1.0
  C   11    (CENTRE 11)  -3.21003255 -0.89014363  0.00196073  CHARGE =  6.0
  O   12    (CENTRE 12)  -4.20675068 -2.89375135  0.41927320  CHARGE =  8.0
  O   13    (CENTRE 13)  -4.59532406  1.14061304 -0.64678302  CHARGE =  8.0
  H   14    (CENTRE 14)  -3.47594942  2.60958698 -0.86912436  CHARGE =  1.0
  N   15    (CENTRE 15)  -0.56848243  4.08089103  0.23287443  CHARGE =  7.0
  H   16    (CENTRE 16)  -1.31135688  4.39282282  1.97661071  CHARGE =  1.0
  H   17    (CENTRE 17)   0.48940801  5.60378755 -0.24436363  CHARGE =  1.0
CENTRE ASSIGNMENTS    1  1  1  1  1  1  1  1  1  1  1  1  1  1  1  1  1  1  1  1
CENTRE ASSIGNMENTS    1  1  1  1  1  1  1  1  1  1  1  1  1  1  1  1  1  1  1  1
CENTRE ASSIGNMENTS    1  1  2  2  2  2  2  2  2  2  2  2  2  2  2  2  2  2  2  2
CENTRE ASSIGNMENTS    2  2  2  2  2  2  2  2  2  2  2  2  2  2  2  2  2  2  2  2
CENTRE ASSIGNMENTS    2  2  2  2  3  3  3  3  3  3  3  3  3  3  3  3  3  3  3  3
CENTRE ASSIGNMENTS    3  3  3  3  3  3  3  3  3  3  3  3  3  3  3  3  3  3  3  3
CENTRE ASSIGNMENTS    3  3  3  3  3  3  4  4  4  4  4  4  4  4  4  4  4  4  4  4
CENTRE ASSIGNMENTS    4  4  4  4  4  4  4  4  4  4  4  4  4  4  4  4  4  4  4  4
CENTRE ASSIGNMENTS    4  4  4  4  4  4  4  4  5  5  5  5  5  5  5  5  5  5  5  5
CENTRE ASSIGNMENTS    5  5  5  5  5  5  5  5  5  5  5  5  5  5  5  5  5  5  5  5
CENTRE ASSIGNMENTS    5  5  5  5  5  5  5  5  5  5  6  6  6  6  6  6  6  6  6  6
CENTRE ASSIGNMENTS    6  6  6  6  6  6  6  6  6  6  6  6  6  6  6  6  6  6  6  6
CENTRE ASSIGNMENTS    6  6  6  6  6  6  6  6  6  6  6  6  7  7  7  7  7  7  7  7
CENTRE ASSIGNMENTS    8  8  8  8  8  8  8  8  9  9  9  9  9  9  9  9 10 10 10 10
CENTRE ASSIGNMENTS   10 10 10 10 11 11 11 11 11 11 11 11 11 11 11 11 11 11 11 11
CENTRE ASSIGNMENTS   11 11 11 11 11 11 11 11 11 11 11 11 11 11 11 11 11 11 11 11
CENTRE ASSIGNMENTS   11 11 11 11 11 11 12 12 12 12 12 12 12 12 12 12 12 12 12 12
CENTRE ASSIGNMENTS   12 12 12 12 12 12 12 12 12 12 12 12 12 12 12 12 12 12 12 12
CENTRE ASSIGNMENTS   12 12 12 12 12 12 12 12 13 13 13 13 13 13 13 13 13 13 13 13
CENTRE ASSIGNMENTS   13 13 13 13 13 13 13 13 13 13 13 13 13 13 13 13 13 13 13 13
CENTRE ASSIGNMENTS   13 13 13 13 13 13 13 13 13 13 14 14 14 14 14 14 14 14 15 15
CENTRE ASSIGNMENTS   15 15 15 15 15 15 15 15 15 15 15 15 15 15 15 15 15 15 15 15
CENTRE ASSIGNMENTS   15 15 15 15 15 15 15 15 15 15 15 15 15 15 15 15 15 15 15 15
CENTRE ASSIGNMENTS   16 16 16 16 16 16 16 16 17 17 17 17 17 17 17 17
TYPE ASSIGNMENTS      1  1  1  1  1  1  1  1  1  2  2  2  3  3  3  4  4  4  1  2
TYPE ASSIGNMENTS      3  4  1  2  3  4  1  2  3  4  5  6  7  8  9 10  5  6  7  8
TYPE ASSIGNMENTS      9 10  1  1  1  1  1  1  1  1  1  2  2  2  3  3  3  4  4  4
TYPE ASSIGNMENTS      1  2  3  4  1  2  3  4  1  2  3  4  5  6  7  8  9 10  5  6
TYPE ASSIGNMENTS      7  8  9 10  1  1  1  1  1  1  1  1  1  2  2  2  3  3  3  4
TYPE ASSIGNMENTS      4  4  1  2  3  4  1  2  3  4  1  2  3  4  5  6  7  8  9 10
TYPE ASSIGNMENTS      5  6  7  8  9 10  1  1  1  1  1  1  1  1  1  2  2  2  3  3
TYPE ASSIGNMENTS      3  4  4  4  1  2  3  4  1  2  3  4  1  2  3  4  5  6  7  8
TYPE ASSIGNMENTS      9 10  5  6  7  8  9 10  1  1  1  1  1  1  1  1  1  2  2  2
TYPE ASSIGNMENTS      3  3  3  4  4  4  1  2  3  4  1  2  3  4  1  2  3  4  5  6
TYPE ASSIGNMENTS      7  8  9 10  5  6  7  8  9 10  1  1  1  1  1  1  1  1  1  2
TYPE ASSIGNMENTS      2  2  3  3  3  4  4  4  1  2  3  4  1  2  3  4  1  2  3  4
TYPE ASSIGNMENTS      5  6  7  8  9 10  5  6  7  8  9 10  1  1  1  1  1  2  3  4
TYPE ASSIGNMENTS      1  1  1  1  1  2  3  4  1  1  1  1  1  2  3  4  1  1  1  1
TYPE ASSIGNMENTS      1  2  3  4  1  1  1  1  1  1  1  1  1  2  2  2  3  3  3  4
TYPE ASSIGNMENTS      4  4  1  2  3  4  1  2  3  4  1  2  3  4  5  6  7  8  9 10
TYPE ASSIGNMENTS      5  6  7  8  9 10  1  1  1  1  1  1  1  1  1  2  2  2  3  3
TYPE ASSIGNMENTS      3  4  4  4  1  2  3  4  1  2  3  4  1  2  3  4  5  6  7  8
TYPE ASSIGNMENTS      9 10  5  6  7  8  9 10  1  1  1  1  1  1  1  1  1  2  2  2
TYPE ASSIGNMENTS      3  3  3  4  4  4  1  2  3  4  1  2  3  4  1  2  3  4  5  6
TYPE ASSIGNMENTS      7  8  9 10  5  6  7  8  9 10  1  1  1  1  1  2  3  4  1  1
TYPE ASSIGNMENTS      1  1  1  1  1  1  1  2  2  2  3  3  3  4  4  4  1  2  3  4
TYPE ASSIGNMENTS      1  2  3  4  1  2  3  4  5  6  7  8  9 10  5  6  7  8  9 10
TYPE ASSIGNMENTS      1  1  1  1  1  2  3  4  1  1  1  1  1  2  3  4
EXPONENTS  0.4563240D+04 0.6820240D+03 0.1549730D+03 0.4445530D+02 0.1302900D+02
EXPONENTS  0.1827730D+01 0.2096420D+02 0.4803310D+01 0.1459330D+01 0.2096420D+02
EXPONENTS  0.4803310D+01 0.1459330D+01 0.2096420D+02 0.4803310D+01 0.1459330D+01
EXPONENTS  0.2096420D+02 0.4803310D+01 0.1459330D+01 0.4834560D+00 0.4834560D+00
EXPONENTS  0.4834560D+00 0.4834560D+00 0.1455850D+00 0.1455850D+00 0.1455850D+00
EXPONENTS  0.1455850D+00 0.4380000D-01 0.4380000D-01 0.4380000D-01 0.4380000D-01
EXPONENTS  0.1252000D+01 0.1252000D+01 0.1252000D+01 0.1252000D+01 0.1252000D+01
EXPONENTS  0.1252000D+01 0.3130000D+00 0.3130000D+00 0.3130000D+00 0.3130000D+00
EXPONENTS  0.3130000D+00 0.3130000D+00 0.4563240D+04 0.6820240D+03 0.1549730D+03
EXPONENTS  0.4445530D+02 0.1302900D+02 0.1827730D+01 0.2096420D+02 0.4803310D+01
EXPONENTS  0.1459330D+01 0.2096420D+02 0.4803310D+01 0.1459330D+01 0.2096420D+02
EXPONENTS  0.4803310D+01 0.1459330D+01 0.2096420D+02 0.4803310D+01 0.1459330D+01
EXPONENTS  0.4834560D+00 0.4834560D+00 0.4834560D+00 0.4834560D+00 0.1455850D+00
EXPONENTS  0.1455850D+00 0.1455850D+00 0.1455850D+00 0.4380000D-01 0.4380000D-01
EXPONENTS  0.4380000D-01 0.4380000D-01 0.1252000D+01 0.1252000D+01 0.1252000D+01
EXPONENTS  0.1252000D+01 0.1252000D+01 0.1252000D+01 0.3130000D+00 0.3130000D+00
EXPONENTS  0.3130000D+00 0.3130000D+00 0.3130000D+00 0.3130000D+00 0.4563240D+04
EXPONENTS  0.6820240D+03 0.1549730D+03 0.4445530D+02 0.1302900D+02 0.1827730D+01
EXPONENTS  0.2096420D+02 0.4803310D+01 0.1459330D+01 0.2096420D+02 0.4803310D+01
EXPONENTS  0.1459330D+01 0.2096420D+02 0.4803310D+01 0.1459330D+01 0.2096420D+02
EXPONENTS  0.4803310D+01 0.1459330D+01 0.4834560D+00 0.4834560D+00 0.4834560D+00
EXPONENTS  0.4834560D+00 0.1455850D+00 0.1455850D+00 0.1455850D+00 0.1455850D+00
EXPONENTS  0.4380000D-01 0.4380000D-01 0.4380000D-01 0.4380000D-01 0.1252000D+01
EXPONENTS  0.1252000D+01 0.1252000D+01 0.1252000D+01 0.1252000D+01 0.1252000D+01
EXPONENTS  0.3130000D+00 0.3130000D+00 0.3130000D+00 0.3130000D+00 0.3130000D+00
EXPONENTS  0.3130000D+00 0.4563240D+04 0.6820240D+03 0.1549730D+03 0.4445530D+02
EXPONENTS  0.1302900D+02 0.1827730D+01 0.2096420D+02 0.4803310D+01 0.1459330D+01
EXPONENTS  0.2096420D+02 0.4803310D+01 0.1459330D+01 0.2096420D+02 0.4803310D+01
EXPONENTS  0.1459330D+01 0.2096420D+02 0.4803310D+01 0.1459330D+01 0.4834560D+00
EXPONENTS  0.4834560D+00 0.4834560D+00 0.4834560D+00 0.1455850D+00 0.1455850D+00
EXPONENTS  0.1455850D+00 0.1455850D+00 0.4380000D-01 0.4380000D-01 0.4380000D-01
EXPONENTS  0.4380000D-01 0.1252000D+01 0.1252000D+01 0.1252000D+01 0.1252000D+01
EXPONENTS  0.1252000D+01 0.1252000D+01 0.3130000D+00 0.3130000D+00 0.3130000D+00
EXPONENTS  0.3130000D+00 0.3130000D+00 0.3130000D+00 0.4563240D+04 0.6820240D+03
EXPONENTS  0.1549730D+03 0.4445530D+02 0.1302900D+02 0.1827730D+01 0.2096420D+02
EXPONENTS  0.4803310D+01 0.1459330D+01 0.2096420D+02 0.4803310D+01 0.1459330D+01
EXPONENTS  0.2096420D+02 0.4803310D+01 0.1459330D+01 0.2096420D+02 0.4803310D+01
EXPONENTS  0.1459330D+01 0.4834560D+00 0.4834560D+00 0.4834560D+00 0.4834560D+00
EXPONENTS  0.1455850D+00 0.1455850D+00 0.1455850D+00 0.1455850D+00 0.4380000D-01
EXPONENTS  0.4380000D-01 0.4380000D-01 0.4380000D-01 0.1252000D+01 0.1252000D+01
EXPONENTS  0.1252000D+01 0.1252000D+01 0.1252000D+01 0.1252000D+01 0.3130000D+00
EXPONENTS  0.3130000D+00 0.3130000D+00 0.3130000D+00 0.3130000D+00 0.3130000D+00
EXPONENTS  0.4563240D+04 0.6820240D+03 0.1549730D+03 0.4445530D+02 0.1302900D+02
EXPONENTS  0.1827730D+01 0.2096420D+02 0.4803310D+01 0.1459330D+01 0.2096420D+02
EXPONENTS  0.4803310D+01 0.1459330D+01 0.2096420D+02 0.4803310D+01 0.1459330D+01
EXPONENTS  0.2096420D+02 0.4803310D+01 0.1459330D+01 0.4834560D+00 0.4834560D+00
EXPONENTS  0.4834560D+00 0.4834560D+00 0.1455850D+00 0.1455850D+00 0.1455850D+00
EXPONENTS  0.1455850D+00 0.4380000D-01 0.4380000D-01 0.4380000D-01 0.4380000D-01
EXPONENTS  0.1252000D+01 0.1252000D+01 0.1252000D+01 0.1252000D+01 0.1252000D+01
EXPONENTS  0.1252000D+01 0.3130000D+00 0.3130000D+00 0.3130000D+00 0.3130000D+00
EXPONENTS  0.3130000D+00 0.3130000D+00 0.3386500D+02 0.5094790D+01 0.1158790D+01
EXPONENTS  0.3258400D+00 0.1027410D+00 0.7500000D+00 0.7500000D+00 0.7500000D+00
EXPONENTS  0.3386500D+02 0.5094790D+01 0.1158790D+01 0.3258400D+00 0.1027410D+00
EXPONENTS  0.7500000D+00 0.7500000D+00 0.7500000D+00 0.3386500D+02 0.5094790D+01
EXPONENTS  0.1158790D+01 0.3258400D+00 0.1027410D+00 0.7500000D+00 0.7500000D+00
EXPONENTS  0.7500000D+00 0.3386500D+02 0.5094790D+01 0.1158790D+01 0.3258400D+00
EXPONENTS  0.1027410D+00 0.7500000D+00 0.7500000D+00 0.7500000D+00 0.4563240D+04
EXPONENTS  0.6820240D+03 0.1549730D+03 0.4445530D+02 0.1302900D+02 0.1827730D+01
EXPONENTS  0.2096420D+02 0.4803310D+01 0.1459330D+01 0.2096420D+02 0.4803310D+01
EXPONENTS  0.1459330D+01 0.2096420D+02 0.4803310D+01 0.1459330D+01 0.2096420D+02
EXPONENTS  0.4803310D+01 0.1459330D+01 0.4834560D+00 0.4834560D+00 0.4834560D+00
EXPONENTS  0.4834560D+00 0.1455850D+00 0.1455850D+00 0.1455850D+00 0.1455850D+00
EXPONENTS  0.4380000D-01 0.4380000D-01 0.4380000D-01 0.4380000D-01 0.1252000D+01
EXPONENTS  0.1252000D+01 0.1252000D+01 0.1252000D+01 0.1252000D+01 0.1252000D+01
EXPONENTS  0.3130000D+00 0.3130000D+00 0.3130000D+00 0.3130000D+00 0.3130000D+00
EXPONENTS  0.3130000D+00 0.8588500D+04 0.1297230D+04 0.2992960D+03 0.8737710D+02
EXPONENTS  0.2567890D+02 0.3740040D+01 0.4211750D+02 0.9628370D+01 0.2853320D+01
EXPONENTS  0.4211750D+02 0.9628370D+01 0.2853320D+01 0.4211750D+02 0.9628370D+01
EXPONENTS  0.2853320D+01 0.4211750D+02 0.9628370D+01 0.2853320D+01 0.9056610D+00
EXPONENTS  0.9056610D+00 0.9056610D+00 0.9056610D+00 0.2556110D+00 0.2556110D+00
EXPONENTS  0.2556110D+00 0.2556110D+00 0.8450000D-01 0.8450000D-01 0.8450000D-01
EXPONENTS  0.8450000D-01 0.2584000D+01 0.2584000D+01 0.2584000D+01 0.2584000D+01
EXPONENTS  0.2584000D+01 0.2584000D+01 0.6460000D+00 0.6460000D+00 0.6460000D+00
EXPONENTS  0.6460000D+00 0.6460000D+00 0.6460000D+00 0.8588500D+04 0.1297230D+04
EXPONENTS  0.2992960D+03 0.8737710D+02 0.2567890D+02 0.3740040D+01 0.4211750D+02
EXPONENTS  0.9628370D+01 0.2853320D+01 0.4211750D+02 0.9628370D+01 0.2853320D+01
EXPONENTS  0.4211750D+02 0.9628370D+01 0.2853320D+01 0.4211750D+02 0.9628370D+01
EXPONENTS  0.2853320D+01 0.9056610D+00 0.9056610D+00 0.9056610D+00 0.9056610D+00
EXPONENTS  0.2556110D+00 0.2556110D+00 0.2556110D+00 0.2556110D+00 0.8450000D-01
EXPONENTS  0.8450000D-01 0.8450000D-01 0.8450000D-01 0.2584000D+01 0.2584000D+01
EXPONENTS  0.2584000D+01 0.2584000D+01 0.2584000D+01 0.2584000D+01 0.6460000D+00
EXPONENTS  0.6460000D+00 0.6460000D+00 0.6460000D+00 0.6460000D+00 0.6460000D+00
EXPONENTS  0.3386500D+02 0.5094790D+01 0.1158790D+01 0.3258400D+00 0.1027410D+00
EXPONENTS  0.7500000D+00 0.7500000D+00 0.7500000D+00 0.6293480D+04 0.9490440D+03
EXPONENTS  0.2187760D+03 0.6369160D+02 0.1882820D+02 0.2720230D+01 0.3063310D+02
EXPONENTS  0.7026140D+01 0.2112050D+01 0.3063310D+02 0.7026140D+01 0.2112050D+01
EXPONENTS  0.3063310D+02 0.7026140D+01 0.2112050D+01 0.3063310D+02 0.7026140D+01
EXPONENTS  0.2112050D+01 0.6840090D+00 0.6840090D+00 0.6840090D+00 0.6840090D+00
EXPONENTS  0.2008780D+00 0.2008780D+00 0.2008780D+00 0.2008780D+00 0.6390000D-01
EXPONENTS  0.6390000D-01 0.6390000D-01 0.6390000D-01 0.1826000D+01 0.1826000D+01
EXPONENTS  0.1826000D+01 0.1826000D+01 0.1826000D+01 0.1826000D+01 0.4565000D+00
EXPONENTS  0.4565000D+00 0.4565000D+00 0.4565000D+00 0.4565000D+00 0.4565000D+00
EXPONENTS  0.3386500D+02 0.5094790D+01 0.1158790D+01 0.3258400D+00 0.1027410D+00
EXPONENTS  0.7500000D+00 0.7500000D+00 0.7500000D+00 0.3386500D+02 0.5094790D+01
EXPONENTS  0.1158790D+01 0.3258400D+00 0.1027410D+00 0.7500000D+00 0.7500000D+00
EXPONENTS  0.7500000D+00
MO    1     MO 0.0        OCC NO =    2.0000000  ORB. ENERGY =  -19.155081
 -0.60089781D-05 -0.11186271D-04 -0.18401310D-04 -0.24709871D-04 -0.23265275D-04
 -0.19118625D-05  0.28005542D-04  0.74415970D-04 -0.10031793D-06  0.27611854D-04
  0.25837892D-04  0.20012446D-04 -0.21367013D-04 -0.19994260D-04 -0.15486327D-04
 -0.11976721D-04 -0.11207260D-04 -0.86804563D-05 -0.25466669D-03  0.43629095D-04
  0.12935616D-03  0.16291478D-04  0.11973584D-02 -0.59870653D-03 -0.33630899D-03
 -0.54362268D-04  0.31842567D-02 -0.90831522D-03 -0.60595322D-03 -0.16451604D-04
  0.23256726D-04 -0.52491924D-04  0.29235198D-04 -0.17466577D-03 -0.54169599D-04
 -0.79467998D-04  0.11916256D-03 -0.73474970D-04 -0.45687589D-04  0.11337308D-03
  0.25378568D-04  0.12706314D-04 -0.18763278D-05 -0.34929583D-05 -0.57458835D-05
 -0.77157572D-05 -0.72646763D-05 -0.59698681D-06  0.88875136D-05  0.23615788D-04
 -0.31835732D-07 -0.85959662D-04 -0.80437064D-04 -0.62301615D-04  0.64553097D-04
  0.60405794D-04  0.46786622D-04  0.23855939D-04  0.22323282D-04  0.17290244D-04
 -0.60066825D-04  0.17220910D-03 -0.81024212D-04 -0.31386633D-04  0.34904112D-03
 -0.68619096D-04  0.81722411D-04  0.26036897D-04  0.91900667D-03 -0.46836271D-03
  0.29180411D-03  0.53056176D-04 -0.73234087D-05 -0.27444448D-06  0.75978531D-05
  0.66858813D-04  0.52118386D-04 -0.13141118D-04 -0.28400517D-04  0.28722534D-04
 -0.32201735D-06 -0.79998366D-05 -0.44911734D-05  0.60964908D-05 -0.11692521D-06
 -0.21766713D-06 -0.35806039D-06 -0.48081500D-06 -0.45270545D-06 -0.37201821D-07
  0.53080921D-06  0.14104595D-05 -0.19013979D-08 -0.92760857D-06 -0.86801307D-06
 -0.67230967D-06 -0.28287374D-04 -0.26470013D-04 -0.20502048D-04 -0.52961285D-05
 -0.49558714D-05 -0.38385139D-05  0.10371683D-04  0.12533631D-04  0.25425765D-04
  0.30085602D-05 -0.12542547D-03  0.96979247D-04  0.25619428D-04 -0.13596700D-04
  0.45785730D-03 -0.34985743D-04  0.38354651D-03 -0.11060963D-05 -0.25908264D-05
  0.40217449D-05 -0.14309185D-05  0.69028262D-04 -0.87440591D-05 -0.79276770D-06
  0.19769519D-04 -0.31380941D-04  0.11611421D-04  0.36796792D-04  0.25900565D-05
  0.70129183D-06 -0.11628510D-06 -0.21647550D-06 -0.35610016D-06 -0.47818275D-06
 -0.45022709D-06 -0.36998157D-07  0.84880935D-06  0.22554454D-05 -0.30404979D-08
  0.79618227D-04  0.74503044D-04  0.57705487D-04  0.38342829D-04  0.35879441D-04
  0.27790014D-04  0.17011800D-04  0.15918854D-04  0.12329768D-04 -0.14256794D-04
 -0.12175577D-03 -0.47137835D-04 -0.16847714D-04  0.61835637D-03 -0.19778203D-03
  0.79682244D-04  0.21052666D-04 -0.60128291D-03  0.35720862D-03  0.22607381D-03
 -0.41787565D-05 -0.58872518D-04  0.34692594D-04  0.24179925D-04  0.64968300D-05
  0.32307993D-04 -0.27147184D-05  0.62373609D-04 -0.34859294D-04 -0.27514314D-04
  0.84316247D-04  0.28590347D-05  0.26453985D-05  0.26364270D-05  0.49079536D-05
  0.80735375D-05  0.10841406D-04  0.10207592D-04  0.83882581D-06 -0.10858998D-04
 -0.28854391D-04  0.38897734D-07 -0.11642848D-03 -0.10894837D-03 -0.84384722D-04
 -0.69839743D-05 -0.65352792D-05 -0.50618263D-05 -0.19473472D-04 -0.18222372D-04
 -0.14113931D-04  0.15917355D-03  0.27680369D-04  0.11755034D-03  0.35437628D-04
 -0.12621920D-02 -0.11344295D-03 -0.22942870D-03 -0.42387361D-04 -0.21993152D-02
  0.62979709D-03 -0.35628757D-03 -0.45554695D-04 -0.25290356D-04  0.98511969D-05
  0.15439159D-04 -0.91567619D-04 -0.12171368D-03  0.13961237D-03 -0.11008462D-03
  0.94823130D-04  0.15261490D-04  0.10296966D-03  0.63339964D-04 -0.41858370D-04
 -0.26867940D-05 -0.50017164D-05 -0.82277764D-05 -0.11048523D-04 -0.10402601D-04
 -0.85485095D-06  0.17216710D-04  0.45748021D-04 -0.61671529D-07 -0.20320864D-03
 -0.19015322D-03 -0.14728102D-03  0.42130328D-04  0.39423607D-04  0.30535108D-04
 -0.54016063D-04 -0.50545726D-04 -0.39149619D-04  0.58759337D-04  0.27791094D-03
 -0.21924372D-04  0.50357117D-04 -0.11873709D-02  0.48914594D-03 -0.11532653D-02
  0.11169250D-03 -0.99992162D-03 -0.28440255D-04 -0.13309367D-02 -0.91856585D-05
 -0.60415718D-04  0.14879824D-04  0.45535895D-04 -0.28744784D-03  0.67604951D-04
  0.61313108D-04 -0.10541306D-03  0.46226982D-04  0.59186074D-04  0.48601847D-03
 -0.80285038D-04 -0.66578343D-05  0.43388300D-05  0.78266303D-05  0.11538516D-04
 -0.82234894D-04 -0.43267012D-05  0.54187864D-05  0.15769248D-04 -0.53671639D-05
  0.24074610D-05  0.43427161D-05  0.64023083D-05 -0.61563499D-04 -0.19084135D-04
  0.16347091D-04 -0.35372992D-04  0.23621088D-05  0.36583319D-05  0.65991087D-05
  0.97288257D-05  0.30033323D-04  0.32956042D-04  0.13752653D-04  0.13948977D-04
 -0.20246331D-05 -0.38387575D-05 -0.69245709D-05 -0.10208643D-04 -0.72348677D-04
 -0.30147083D-04 -0.49930325D-04  0.14579320D-04  0.11651388D-04  0.16936439D-04
  0.31528753D-04  0.51864503D-04  0.69645323D-04  0.65573697D-04  0.53886272D-05
 -0.75226031D-04 -0.19988965D-03  0.26946521D-06 -0.14365176D-03 -0.13442266D-03
 -0.10411554D-03  0.23288064D-03  0.21791890D-03  0.16878661D-03 -0.41392977D-04
 -0.38733628D-04 -0.30000692D-04  0.16028249D-04 -0.39861048D-03  0.45252329D-03
 -0.17566746D-03  0.23355406D-02 -0.18231039D-03  0.12124466D-02 -0.25924511D-03
 -0.72319712D-03 -0.82317926D-04  0.14798009D-04  0.38677096D-05 -0.11605674D-03
 -0.96916013D-04  0.21297276D-03 -0.69664004D-03  0.11186135D-04  0.16830491D-03
  0.93972034D-04  0.19348523D-03 -0.28745726D-03  0.46546552D-03  0.17470911D-04
 -0.26323160D-03 -0.13883710D-03 -0.25534287D-03 -0.41794158D-03 -0.56322928D-03
 -0.55715372D-03 -0.62012799D-04 -0.65849917D-04 -0.17601983D-03  0.25140875D-06
  0.30849821D-04  0.31674919D-04  0.23938119D-04  0.29413954D-03  0.30200649D-03
  0.22823949D-03 -0.88172938D-04 -0.90531180D-04 -0.68418365D-04 -0.31201824D-03
 -0.10267531D-03 -0.35657221D-03  0.96418107D-04 -0.49135120D-04  0.20531577D-03
 -0.25055913D-03  0.56383905D-04  0.88823801D-04  0.17771352D-04 -0.55447591D-05
  0.47267961D-06 -0.25378921D-03  0.32107210D-03 -0.67282892D-04 -0.50042887D-03
  0.17495568D-03 -0.19790785D-03  0.15352631D-03 -0.19413126D-03  0.40604945D-04
  0.28160216D-03 -0.87135267D-04  0.13341721D-03  0.66433577D+00  0.12218161D+01
  0.19998512D+01  0.26950531D+01  0.26659816D+01  0.29673136D+00  0.63025919D+00
  0.16847115D+01 -0.24062700D-02  0.66527314D-02  0.68306630D-02  0.51622302D-02
 -0.46580854D-03 -0.47826689D-03 -0.36144717D-03  0.83953154D-03  0.86198535D-03
  0.65143996D-03  0.97015085D-02  0.16799193D-03 -0.57009721D-04  0.50056512D-04
 -0.41196144D-02 -0.93312450D-03  0.86224443D-03 -0.32003516D-03  0.13186631D-03
  0.15248307D-04  0.50789677D-05  0.17287018D-05  0.47062239D-03  0.13079316D-02
 -0.17785540D-02 -0.14485507D-02  0.93815030D-03 -0.16966872D-02 -0.22020906D-03
 -0.15322704D-03  0.37343610D-03  0.89408900D-03 -0.36755626D-03  0.32823017D-03
 -0.20783176D-05 -0.37489884D-05 -0.55269971D-05  0.24453314D-03  0.12944121D-03
  0.55862442D-03  0.37690366D-03  0.63437662D-04  0.30197008D-05  0.55502167D-05
  0.90712364D-05  0.12176625D-04  0.11814373D-04  0.11773690D-05 -0.26248551D-04
 -0.71650613D-04  0.81083617D-07  0.46547673D-04  0.45783375D-04  0.35094776D-04
  0.71408311D-05  0.70235809D-05  0.53838539D-05 -0.74714618D-05 -0.73487827D-05
 -0.56331340D-05  0.12925432D-03 -0.88317302D-04 -0.66154672D-04 -0.10779409D-05
 -0.17474065D-03  0.12513420D-03  0.18852930D-03  0.56792922D-04 -0.44138957D-03
  0.33849751D-04  0.42456394D-04  0.89981605D-05  0.46656463D-04  0.41523896D-04
 -0.88180358D-04  0.32883115D-03  0.30431048D-03  0.31586959D-03 -0.20156129D-05
 -0.59383763D-04  0.61399375D-04 -0.15910521D-03 -0.98987535D-04 -0.89370134D-04
 -0.41018540D-05 -0.73991595D-05 -0.10908311D-04 -0.53025045D-04  0.69234448D-04
 -0.79070773D-04 -0.42127288D-05  0.31928237D-04  0.12121831D-04  0.21866054D-04
  0.32236327D-04 -0.57425798D-04  0.75664389D-04  0.17753559D-04 -0.67716111D-04
  0.30367663D-04
MO    2     MO 0.0        OCC NO =    2.0000000  ORB. ENERGY =  -19.101781
  0.47181382D-05  0.87832523D-05  0.14448367D-04  0.19401733D-04  0.18267463D-04
  0.15011590D-05 -0.19839662D-04 -0.52717697D-04  0.71067139D-07 -0.17405554D-03
 -0.16287310D-03 -0.12615151D-03 -0.23372583D-04 -0.21870979D-04 -0.16939919D-04
 -0.93488791D-05 -0.87482474D-05 -0.67758558D-05  0.29484131D-03  0.83783032D-04
 -0.12024057D-03  0.18213709D-05 -0.20974367D-02  0.28496817D-03  0.58711222D-03
  0.57043698D-04 -0.49146610D-03 -0.22299399D-03 -0.60424099D-04 -0.88746778D-05
  0.53012925D-04 -0.34009745D-04 -0.19003179D-04  0.19993256D-03  0.34435944D-04
  0.80207801D-04 -0.24815223D-03  0.17809826D-03  0.70053977D-04 -0.26447722D-03
 -0.22939324D-04 -0.18478090D-04  0.27439834D-05  0.51081798D-05  0.84029077D-05
  0.11283695D-04  0.10624024D-04  0.87304678D-06 -0.12776482D-04 -0.33949504D-04
  0.45766304D-07  0.13980073D-03  0.13081904D-03  0.10132440D-03 -0.42127510D-04
 -0.39420970D-04 -0.30533065D-04 -0.21512449D-04 -0.20130352D-04 -0.15591736D-04
  0.71915702D-04 -0.26976507D-03  0.50486565D-04  0.32597005D-04  0.57996107D-03
 -0.89146042D-04 -0.23462209D-03 -0.13014365D-04  0.64624850D-03 -0.90713666D-04
  0.30889159D-04  0.15310376D-04 -0.37852777D-04  0.14015195D-04  0.23837582D-04
 -0.69515904D-04 -0.15773520D-04 -0.22428031D-05  0.79366612D-04 -0.46127305D-04
 -0.33239307D-04 -0.85292743D-04 -0.20796977D-04  0.77647344D-05  0.14151480D-06
  0.26344294D-06  0.43336116D-06  0.58193130D-06  0.54791026D-06  0.45025433D-07
 -0.51285594D-06 -0.13627543D-05  0.18370880D-08 -0.17095929D-04 -0.15997577D-04
 -0.12390742D-04  0.52277552D-04  0.48918909D-04  0.37889585D-04  0.86428923D-05
  0.80876178D-05  0.62641726D-05  0.10802446D-04  0.34661759D-04 -0.54866221D-04
 -0.76184447D-05 -0.25394808D-03  0.12603127D-03 -0.11568132D-03  0.54828842D-06
  0.32945143D-03 -0.26162287D-04  0.32915176D-04 -0.52911864D-05 -0.52754097D-05
  0.63754458D-05 -0.11000362D-05 -0.11987853D-03  0.37464957D-05  0.16687679D-04
  0.15295666D-04 -0.23534731D-04  0.82390646D-05 -0.12696885D-04 -0.27738648D-05
 -0.30628989D-05 -0.26613990D-07 -0.49544412D-07 -0.81500093D-07 -0.10944095D-06
 -0.10304278D-06 -0.84677109D-08 -0.26215861D-06 -0.69660453D-06  0.93907157D-09
 -0.90585693D-04 -0.84765890D-04 -0.65654458D-04 -0.77781376D-04 -0.72784204D-04
 -0.56374179D-04 -0.33408157D-04 -0.31261803D-04 -0.24213475D-04 -0.91679718D-05
  0.12170676D-03  0.81849811D-04  0.29424774D-04  0.24067859D-03 -0.96619147D-04
 -0.76340281D-04 -0.87303451D-05 -0.74385306D-03  0.79929246D-04 -0.14535408D-04
  0.56459060D-05  0.96206876D-05 -0.38102375D-04  0.28481687D-04 -0.39033544D-04
 -0.38987965D-04  0.37418043D-05 -0.25999884D-04  0.40814163D-04 -0.14814279D-04
 -0.71073315D-04 -0.11484844D-04  0.33640390D-05 -0.65261758D-05 -0.12149082D-04
 -0.19985126D-04 -0.26836670D-04 -0.25267736D-04 -0.20764181D-05  0.31885909D-04
  0.84726830D-04 -0.11421769D-06 -0.12099313D-04 -0.11321976D-04 -0.87693081D-05
  0.34924944D-04  0.32681143D-04  0.25312808D-04  0.84798176D-04  0.79350200D-04
  0.61459797D-04 -0.21735161D-03  0.10634598D-03 -0.22961118D-03 -0.91490663D-04
  0.10064592D-02 -0.46658918D-03  0.29523001D-03  0.65839079D-04  0.59159926D-03
  0.77754396D-04  0.56287997D-05 -0.21398534D-04  0.11452166D-03 -0.12821913D-03
  0.13697472D-04  0.33535859D-03  0.15258978D-03 -0.10598507D-03  0.41950136D-04
 -0.55139768D-04  0.13189632D-04 -0.13405792D-03 -0.52727193D-04  0.36594036D-05
 -0.85079283D-05 -0.15838298D-04 -0.26053852D-04 -0.34985950D-04 -0.32940591D-04
 -0.27069477D-05  0.45042770D-04  0.11968707D-03 -0.16134654D-06 -0.26095315D-03
 -0.24418786D-03 -0.18913293D-03 -0.18891726D-04 -0.17678001D-04 -0.13692295D-04
  0.43400630D-04  0.40612296D-04  0.31455793D-04 -0.15967790D-03  0.36367232D-03
  0.30487242D-04 -0.31755583D-04  0.24041157D-03  0.16265555D-03  0.17510588D-02
 -0.10717644D-03  0.11621170D-03 -0.61545183D-06 -0.67413955D-04  0.24768209D-04
 -0.13953376D-03  0.11189480D-04  0.12834428D-03  0.41279999D-03 -0.17687162D-03
  0.12644822D-03 -0.93996326D-04  0.99923619D-04 -0.59272933D-05 -0.73699743D-03
  0.12359586D-03 -0.34441013D-04  0.45070743D-06  0.81301189D-06  0.11985938D-05
  0.87550601D-04  0.31452824D-04  0.15220725D-04 -0.29232828D-04 -0.52768289D-05
  0.25322015D-05  0.45677303D-05  0.67340384D-05 -0.52969303D-04 -0.31990818D-04
  0.18499952D-04  0.54049836D-04 -0.38868414D-05  0.73397578D-06  0.13239876D-05
  0.19519067D-05 -0.11745550D-03  0.33633285D-04  0.20376066D-04 -0.33062073D-04
  0.37560468D-05  0.15451214D-04  0.27871786D-04  0.41090359D-04 -0.36189073D-04
 -0.12258852D-04  0.12389826D-03 -0.32059501D-04 -0.33009659D-04  0.36207410D-05
  0.67403455D-05  0.11087805D-04  0.14889061D-04  0.14018612D-04  0.11520027D-05
 -0.20497158D-04 -0.54464786D-04  0.73422336D-07 -0.32399465D-03 -0.30317917D-03
 -0.23482399D-03 -0.66033510D-03 -0.61791096D-03 -0.47859592D-03  0.15007546D-03
  0.14043365D-03  0.10877129D-03  0.41164136D-03 -0.53630170D-04 -0.10443986D-03
  0.79672897D-05  0.23158499D-02 -0.31417333D-03 -0.16911304D-02  0.31271560D-03
 -0.52440458D-03 -0.64630658D-04 -0.34411238D-05 -0.11835847D-04 -0.13221868D-03
 -0.36118841D-03  0.49340709D-03 -0.24293845D-03  0.49578467D-04  0.46749327D-03
  0.29381490D-03 -0.94377034D-04 -0.19943787D-03 -0.65785810D-03  0.17249073D-03
 -0.13600133D-03  0.66432085D+00  0.12217886D+01  0.19998063D+01  0.26949926D+01
  0.26659217D+01  0.29672469D+00  0.63026789D+00  0.16847348D+01 -0.24063032D-02
  0.30821297D-02  0.31645633D-02  0.23915986D-02  0.60103251D-02  0.61710752D-02
  0.46637509D-02 -0.12586726D-02 -0.12923366D-02 -0.97667521D-03  0.98156200D-02
  0.26366009D-03  0.55693272D-03 -0.13923726D-03 -0.44055682D-02 -0.69740244D-03
 -0.11230920D-02  0.22902512D-03 -0.47464101D-03 -0.41143103D-04 -0.12346570D-03
  0.41605403D-04 -0.44619127D-03  0.17761234D-02 -0.13299321D-02  0.33011609D-02
 -0.79831923D-03 -0.13209294D-02 -0.22399644D-04 -0.30345467D-03  0.32585432D-03
 -0.60366982D-03  0.13065312D-03  0.26076601D-03  0.14261594D-03  0.26229274D-03
  0.42931704D-03  0.57855916D-03  0.57231823D-03  0.63700653D-04  0.19922950D-03
  0.53254951D-03 -0.76063936D-06  0.14601677D-03  0.14992208D-03  0.11330266D-03
 -0.50933254D-03 -0.52295497D-03 -0.39521990D-03  0.16375682D-03  0.16813660D-03
  0.12706817D-03 -0.27850437D-03 -0.22112159D-03  0.47217590D-03 -0.16454602D-03
  0.28563803D-03  0.47206313D-03  0.49362833D-03 -0.50510431D-04  0.45778475D-03
  0.48694700D-04 -0.62983219D-04  0.22053863D-04 -0.84228951D-03  0.66228740D-03
  0.18000212D-03 -0.17182824D-03 -0.26532712D-03 -0.34663996D-03  0.40954797D-03
 -0.35471711D-03 -0.54830867D-04  0.24959262D-03  0.70703100D-04  0.23834822D-03
  0.49386401D-06  0.89086022D-06  0.13133628D-05 -0.41775700D-03 -0.31234641D-04
  0.12493145D-03  0.17407648D-03 -0.92396722D-04 -0.16366107D-05 -0.30080941D-05
 -0.49164086D-05 -0.65994599D-05 -0.64031274D-05 -0.63810781D-06  0.14674778D-04
  0.40057711D-04 -0.45331421D-07 -0.30734210D-04 -0.30229564D-04 -0.23172162D-04
 -0.60693631D-04 -0.59697060D-04 -0.45760169D-04 -0.20076506D-04 -0.19746856D-04
 -0.15136750D-04 -0.92337110D-04  0.17473316D-04  0.11614805D-03  0.36350832D-04
  0.33894079D-05 -0.17944912D-03 -0.10207489D-03  0.10095160D-05 -0.62098335D-05
  0.46515597D-04  0.11708374D-04 -0.37395720D-05  0.80421105D-04 -0.11981285D-03
  0.39391744D-04 -0.18667883D-03 -0.51738041D-04 -0.11071273D-03 -0.61986613D-04
  0.69986512D-04 -0.79998997D-05  0.13248349D-03  0.68048568D-05  0.41644056D-04
  0.90529149D-05  0.16330167D-04  0.24074970D-04 -0.85318046D-04  0.32282579D-04
  0.23092539D-04  0.44304505D-04  0.38768276D-04 -0.99264298D-05 -0.17905863D-04
 -0.26397962D-04  0.54183136D-04 -0.24889353D-04  0.17211148D-04  0.20045451D-04
 -0.23645647D-04
MO    3     MO 0.0        OCC NO =    2.0000000  ORB. ENERGY =  -14.356039
  0.23616692D-04  0.43964665D-04  0.72321460D-04  0.97115583D-04  0.91437982D-04
  0.75140677D-05 -0.94986899D-04 -0.25239798D-03  0.34025010D-06 -0.35673526D-03
 -0.33381631D-03 -0.25855364D-03  0.56995629D-03  0.53333866D-03  0.41309141D-03
  0.68608428D-04  0.64200585D-04  0.49725834D-04  0.50053548D-03 -0.83441407D-04
  0.27634214D-03 -0.22014992D-04 -0.61002831D-03 -0.21044787D-02  0.26695536D-02
  0.13026873D-03 -0.43718626D-02  0.70831162D-03  0.10685973D-02  0.43899348D-05
 -0.37924282D-03  0.41719875D-03 -0.37955931D-04 -0.13767881D-02 -0.44663899D-04
  0.55428971D-04  0.47491637D-03 -0.40694736D-03 -0.67969016D-04  0.13905258D-02
  0.60004334D-04 -0.30901787D-04 -0.12316837D-04 -0.22928935D-04 -0.37717882D-04
 -0.50648786D-04 -0.47687741D-04 -0.39188191D-05  0.74269048D-04  0.19734677D-03
 -0.26603723D-06 -0.13791715D-03 -0.12905647D-03 -0.99959223D-04  0.34172906D-03
  0.31977420D-03  0.24767748D-03  0.25733430D-04  0.24080150D-04  0.18651007D-04
 -0.59706700D-03  0.50277363D-03 -0.34329986D-03 -0.48669046D-04  0.26827397D-02
 -0.63795320D-03 -0.13125265D-02  0.70924422D-05  0.55890661D-04  0.45553579D-03
 -0.48394914D-03 -0.35837791D-04 -0.18555240D-03 -0.23442082D-04  0.20899448D-03
 -0.31819350D-03  0.53240790D-04  0.90758270D-04 -0.11705893D-03  0.25537592D-03
 -0.13831699D-03  0.10819689D-02  0.50967107D-04 -0.79181370D-04  0.41103690D-06