 Entering Gaussian System, Link 0=g16
 Initial command:
 /software/gaussian//g16/l1.exe "/software/scratch/Gau-17531.inp" -scrdir="/software/scratch/"
 Entering Link 1 = /software/gaussian//g16/l1.exe PID=     17533.
  
 Copyright (c) 1988-2017, Gaussian, Inc.  All Rights Reserved.
  
 This is part of the Gaussian(R) 16 program.  It is based on
 the Gaussian(R) 09 system (copyright 2009, Gaussian, Inc.),
 the Gaussian(R) 03 system (copyright 2003, Gaussian, Inc.),
 the Gaussian(R) 98 system (copyright 1998, Gaussian, Inc.),
 the Gaussian(R) 94 system (copyright 1995, Gaussian, Inc.),
 the Gaussian 92(TM) system (copyright 1992, Gaussian, Inc.),
 the Gaussian 90(TM) system (copyright 1990, Gaussian, Inc.),
 the Gaussian 88(TM) system (copyright 1988, Gaussian, Inc.),
 the Gaussian 86(TM) system (copyright 1986, Carnegie Mellon
 University), and the Gaussian 82(TM) system (copyright 1983,
 Carnegie Mellon University). Gaussian is a federally registered
 trademark of Gaussian, Inc.
  
 This software contains proprietary and confidential information,
 including trade secrets, belonging to Gaussian, Inc.
  
 This software is provided under written license and may be
 used, copied, transmitted, or stored only in accord with that
 written license.
  
 The following legend is applicable only to US Government
 contracts under FAR:
  
                    RESTRICTED RIGHTS LEGEND
  
 Use, reproduction and disclosure by the US Government is
 subject to restrictions as set forth in subparagraphs (a)
 and (c) of the Commercial Computer Software - Restricted
 Rights clause in FAR 52.227-19.
  
 Gaussian, Inc.
 340 Quinnipiac St., Bldg. 40, Wallingford CT 06492
  
  
 ---------------------------------------------------------------
 Warning -- This program may not be used in any manner that
 competes with the business of Gaussian, Inc. or will provide
 assistance to any competitor of Gaussian, Inc.  The licensee
 of this program is prohibited from giving any competitor of
 Gaussian, Inc. access to this program.  By using this program,
 the user acknowledges that Gaussian, Inc. is engaged in the
 business of creating and licensing software in the field of
 computational chemistry and represents and warrants to the
 licensee that it is not a competitor of Gaussian, Inc. and that
 it will not use this program in any manner prohibited above.
 ---------------------------------------------------------------
  

 Cite this work as:
 Gaussian 16, Revision B.01,
 M. J. Frisch, G. W. Trucks, H. B. Schlegel, G. E. Scuseria, 
 M. A. Robb, J. R. Cheeseman, G. Scalmani, V. Barone, 
 G. A. Petersson, H. Nakatsuji, X. Li, M. Caricato, A. V. Marenich, 
 J. Bloino, B. G. Janesko, R. Gomperts, B. Mennucci, H. P. Hratchian, 
 J. V. Ortiz, A. F. Izmaylov, J. L. Sonnenberg, D. Williams-Young, 
 F. Ding, F. Lipparini, F. Egidi, J. Goings, B. Peng, A. Petrone, 
 T. Henderson, D. Ranasinghe, V. G. Zakrzewski, J. Gao, N. Rega, 
 G. Zheng, W. Liang, M. Hada, M. Ehara, K. Toyota, R. Fukuda, 
 J. Hasegawa, M. Ishida, T. Nakajima, Y. Honda, O. Kitao, H. Nakai, 
 T. Vreven, K. Throssell, J. A. Montgomery, Jr., J. E. Peralta, 
 F. Ogliaro, M. J. Bearpark, J. J. Heyd, E. N. Brothers, K. N. Kudin, 
 V. N. Staroverov, T. A. Keith, R. Kobayashi, J. Normand, 
 K. Raghavachari, A. P. Rendell, J. C. Burant, S. S. Iyengar, 
 J. Tomasi, M. Cossi, J. M. Millam, M. Klene, C. Adamo, R. Cammi, 
 J. W. Ochterski, R. L. Martin, K. Morokuma, O. Farkas, 
 J. B. Foresman, and D. J. Fox, Gaussian, Inc., Wallingford CT, 2016.
 
 ******************************************
 Gaussian 16:  EM64L-G16RevB.01 20-Dec-2017
                25-Jul-2023 
 ******************************************
 %mem=3200mb
 %NProcShared=8
 Will use up to    8 processors via shared memory.
 %chk=acid-2-new.chk
 ----------------------------------------------------------------
 # opt freq B3LYP/6-311+G(2d,p) scf=xqc out=wfn geom=connectivity
 ----------------------------------------------------------------
 1/18=20,19=15,26=3,38=1,57=2/1,3;
 2/9=110,12=2,17=6,18=5,40=1/2;
 3/5=4,6=6,7=112,11=2,25=1,30=1,71=1,74=-5/1,2,3;
 4//1;
 5/5=2,8=3,13=1,38=5/2,8;
 6/7=2,8=2,9=2,10=2,28=1/1;
 7//1,2,3,16;
 1/18=20,19=15,26=3/3(2);
 2/9=110/2;
 99/6=100/99;
 2/9=110/2;
 3/5=4,6=6,7=112,11=2,25=1,30=1,71=1,74=-5/1,2,3;
 4/5=5,16=3,69=1/1;
 5/5=2,8=3,13=1,38=5/2,8;
 7//1,2,3,16;
 1/18=20,19=15,26=3/3(-5);
 2/9=110/2;
 6/7=2,8=2,9=2,10=2,19=2,28=1/1;
 99/6=100,9=1/99;
 -------------------
 Title Card Required
 -------------------
 Symbolic Z-matrix:
 Charge =  0 Multiplicity = 1
 C                     0.41449   0.91915   0.00536 
 C                     1.80153   1.06949   0.00477 
 C                     2.62514  -0.05605  -0.00249 
 C                     2.06177  -1.33269  -0.00796 
 C                     0.67506  -1.48291  -0.00688 
 C                    -0.14867  -0.35693  -0.00062 
 H                     2.2452    2.07566   0.00871 
 H                     3.71843   0.06238  -0.00359 
 H                     2.71137  -2.21998  -0.01362 
 H                     0.23076  -2.48892  -0.01119 
 C                    -1.67967  -0.52313   0.00029 
 O                    -2.19215  -1.67219   0.02495 
 O                    -2.52185   0.63225  -0.027 
 H                    -1.97883   1.42373  -0.04364 
 N                    -0.45335   2.10561   0.01241 
 H                    -0.2743    2.64468   0.83542 
 H                    -0.26503   2.66116  -0.79746 
 

 GradGradGradGradGradGradGradGradGradGradGradGradGradGradGradGradGradGrad
 Berny optimization.
 Initialization pass.
                           ----------------------------
                           !    Initial Parameters    !
                           ! (Angstroms and Degrees)  !
 --------------------------                            --------------------------
 ! Name  Definition              Value          Derivative Info.                !
 --------------------------------------------------------------------------------
 ! R1    R(1,2)                  1.3952         estimate D2E/DX2                !
 ! R2    R(1,6)                  1.3948         estimate D2E/DX2                !
 ! R3    R(1,15)                 1.47           estimate D2E/DX2                !
 ! R4    R(2,3)                  1.3947         estimate D2E/DX2                !
 ! R5    R(2,7)                  1.0997         estimate D2E/DX2                !
 ! R6    R(3,4)                  1.3954         estimate D2E/DX2                !
 ! R7    R(3,8)                  1.0997         estimate D2E/DX2                !
 ! R8    R(4,5)                  1.3948         estimate D2E/DX2                !
 ! R9    R(4,9)                  1.0997         estimate D2E/DX2                !
 ! R10   R(5,6)                  1.3951         estimate D2E/DX2                !
 ! R11   R(5,10)                 1.0998         estimate D2E/DX2                !
 ! R12   R(6,11)                 1.54           estimate D2E/DX2                !
 ! R13   R(11,12)                1.2584         estimate D2E/DX2                !
 ! R14   R(11,13)                1.43           estimate D2E/DX2                !
 ! R15   R(13,14)                0.96           estimate D2E/DX2                !
 ! R16   R(15,16)                1.0            estimate D2E/DX2                !
 ! R17   R(15,17)                1.0            estimate D2E/DX2                !
 ! A1    A(2,1,6)              119.9985         estimate D2E/DX2                !
 ! A2    A(2,1,15)             119.9972         estimate D2E/DX2                !
 ! A3    A(6,1,15)             120.0043         estimate D2E/DX2                !
 ! A4    A(1,2,3)              120.0086         estimate D2E/DX2                !
 ! A5    A(1,2,7)              119.9808         estimate D2E/DX2                !
 ! A6    A(3,2,7)              120.0106         estimate D2E/DX2                !
 ! A7    A(2,3,4)              119.9941         estimate D2E/DX2                !
 ! A8    A(2,3,8)              120.0128         estimate D2E/DX2                !
 ! A9    A(4,3,8)              119.9931         estimate D2E/DX2                !
 ! A10   A(3,4,5)              119.994          estimate D2E/DX2                !
 ! A11   A(3,4,9)              119.9811         estimate D2E/DX2                !
 ! A12   A(5,4,9)              120.0249         estimate D2E/DX2                !
 ! A13   A(4,5,6)              120.0047         estimate D2E/DX2                !
 ! A14   A(4,5,10)             120.0113         estimate D2E/DX2                !
 ! A15   A(6,5,10)             119.984          estimate D2E/DX2                !
 ! A16   A(1,6,5)              120.0            estimate D2E/DX2                !
 ! A17   A(1,6,11)             120.008          estimate D2E/DX2                !
 ! A18   A(5,6,11)             119.992          estimate D2E/DX2                !
 ! A19   A(6,11,12)            120.2269         estimate D2E/DX2                !
 ! A20   A(6,11,13)            119.8866         estimate D2E/DX2                !
 ! A21   A(12,11,13)           119.8865         estimate D2E/DX2                !
 ! A22   A(11,13,14)           109.4711         estimate D2E/DX2                !
 ! A23   A(1,15,16)            109.4712         estimate D2E/DX2                !
 ! A24   A(1,15,17)            109.4712         estimate D2E/DX2                !
 ! A25   A(16,15,17)           109.4713         estimate D2E/DX2                !
 ! D1    D(6,1,2,3)              0.0323         estimate D2E/DX2                !
 ! D2    D(6,1,2,7)            179.9533         estimate D2E/DX2                !
 ! D3    D(15,1,2,3)          -179.973          estimate D2E/DX2                !
 ! D4    D(15,1,2,7)            -0.052          estimate D2E/DX2                !
 ! D5    D(2,1,6,5)              0.0149         estimate D2E/DX2                !
 ! D6    D(2,1,6,11)           179.9892         estimate D2E/DX2                !
 ! D7    D(15,1,6,5)          -179.9798         estimate D2E/DX2                !
 ! D8    D(15,1,6,11)           -0.0055         estimate D2E/DX2                !
 ! D9    D(2,1,15,16)          -60.4734         estimate D2E/DX2                !
 ! D10   D(2,1,15,17)           59.5267         estimate D2E/DX2                !
 ! D11   D(6,1,15,16)          119.5214         estimate D2E/DX2                !
 ! D12   D(6,1,15,17)         -120.4786         estimate D2E/DX2                !
 ! D13   D(1,2,3,4)             -0.0568         estimate D2E/DX2                !
 ! D14   D(1,2,3,8)            179.9618         estimate D2E/DX2                !
 ! D15   D(7,2,3,4)           -179.9778         estimate D2E/DX2                !
 ! D16   D(7,2,3,8)              0.0408         estimate D2E/DX2                !
 ! D17   D(2,3,4,5)              0.0341         estimate D2E/DX2                !
 ! D18   D(2,3,4,9)           -179.9965         estimate D2E/DX2                !
 ! D19   D(8,3,4,5)           -179.9845         estimate D2E/DX2                !
 ! D20   D(8,3,4,9)             -0.0151         estimate D2E/DX2                !
 ! D21   D(3,4,5,6)              0.0132         estimate D2E/DX2                !
 ! D22   D(3,4,5,10)          -179.9996         estimate D2E/DX2                !
 ! D23   D(9,4,5,6)           -179.9563         estimate D2E/DX2                !
 ! D24   D(9,4,5,10)             0.031          estimate D2E/DX2                !
 ! D25   D(4,5,6,1)             -0.0377         estimate D2E/DX2                !
 ! D26   D(4,5,6,11)           179.9881         estimate D2E/DX2                !
 ! D27   D(10,5,6,1)           179.9751         estimate D2E/DX2                !
 ! D28   D(10,5,6,11)            0.0008         estimate D2E/DX2                !
 ! D29   D(1,6,11,12)         -178.4163         estimate D2E/DX2                !
 ! D30   D(1,6,11,13)            1.5835         estimate D2E/DX2                !
 ! D31   D(5,6,11,12)            1.558          estimate D2E/DX2                !
 ! D32   D(5,6,11,13)         -178.4422         estimate D2E/DX2                !
 ! D33   D(6,11,13,14)           0.0001         estimate D2E/DX2                !
 ! D34   D(12,11,13,14)        180.0            estimate D2E/DX2                !
 --------------------------------------------------------------------------------
 Trust Radius=3.00D-01 FncErr=1.00D-07 GrdErr=1.00D-06 EigMax=2.50D+02 EigMin=1.00D-04
 Number of steps in this run=     86 maximum allowed number of steps=    102.
 GradGradGradGradGradGradGradGradGradGradGradGradGradGradGradGradGradGrad

                          Input orientation:                          
 ---------------------------------------------------------------------
 Center     Atomic      Atomic             Coordinates (Angstroms)
 Number     Number       Type             X           Y           Z
 ---------------------------------------------------------------------
      1          6           0        0.414489    0.919146    0.005364
      2          6           0        1.801525    1.069486    0.004770
      3          6           0        2.625141   -0.056048   -0.002487
      4          6           0        2.061771   -1.332685   -0.007957
      5          6           0        0.675060   -1.482914   -0.006884
      6          6           0       -0.148668   -0.356929   -0.000620
      7          1           0        2.245195    2.075658    0.008712
      8          1           0        3.718426    0.062375   -0.003590
      9          1           0        2.711365   -2.219981   -0.013620
     10          1           0        0.230755   -2.488920   -0.011187
     11          6           0       -1.679673   -0.523132    0.000285
     12          8           0       -2.192152   -1.672187    0.024953
     13          8           0       -2.521848    0.632245   -0.026997
     14          1           0       -1.978825    1.423731   -0.043641
     15          7           0       -0.453351    2.105613    0.012413
     16          1           0       -0.274296    2.644683    0.835421
     17          1           0       -0.265030    2.661163   -0.797463
 ---------------------------------------------------------------------
                    Distance matrix (angstroms):
                    1          2          3          4          5
     1  C    0.000000
     2  C    1.395160   0.000000
     3  C    2.416205   1.394712   0.000000
     4  C    2.790064   2.416261   1.395427   0.000000
     5  C    2.416183   2.789947   2.416357   1.394825   0.000000
     6  C    1.394829   2.416183   2.790081   2.416236   1.395138
     7  H    2.165414   1.099655   2.165330   3.413316   3.889602
     8  H    3.413230   2.165376   1.099681   2.165806   3.413210
     9  H    3.889745   3.413025   2.165679   1.099681   2.165606
    10  H    3.413055   3.889708   3.413506   2.165528   1.099761
    11  C    2.542775   3.828210   4.330081   3.828034   2.542833
    12  O    3.675591   4.844237   5.081237   4.267576   2.873629
    13  O    2.950497   4.345543   5.192865   4.987071   3.833344
    14  H    2.446418   3.797220   4.836108   4.891372   3.936120
    15  N    1.470000   2.481549   3.761664   4.260064   3.761809
    16  H    2.034919   2.735006   4.050034   4.689131   4.318311
    17  H    2.034920   2.729041   4.045777   4.689152   4.322286
                    6          7          8          9         10
     6  C    0.000000
     7  H    3.412938   0.000000
     8  H    3.889761   2.494768   0.000000
     9  H    3.413344   4.320917   2.494679   0.000000
    10  H    2.165516   4.989362   4.321228   2.495147   0.000000
    11  C    1.540000   4.707268   5.429761   4.707516   2.741202
    12  O    2.430305   5.808326   6.159907   4.934171   2.557115
    13  O    2.571215   4.980905   6.266284   5.960024   4.161580
    14  H    2.553835   4.274353   5.857778   5.939311   4.493566
    15  N    2.481353   2.698715   4.645299   5.359745   4.645244
    16  H    3.118400   2.712024   4.828466   5.770615   5.227399
    17  H    3.123680   2.700734   4.822018   5.770520   5.233296
                   11         12         13         14         15
    11  C    0.000000
    12  O    1.258400   0.000000
    13  O    1.430000   2.328477   0.000000
    14  H    1.970202   3.104017   0.960001   0.000000
    15  N    2.900744   4.158769   2.539891   1.671878   0.000000
    16  H    3.564770   4.792744   3.137700   2.273520   1.000000
    17  H    3.574542   4.813324   3.131031   2.244232   1.000000
                   16         17
    16  H    0.000000
    17  H    1.632993   0.000000
 Stoichiometry    C7H7NO2
 Framework group  C1[X(C7H7NO2)]
 Deg. of freedom    45
 Full point group                 C1      NOp   1
 Largest Abelian subgroup         C1      NOp   1
 Largest concise Abelian subgroup C1      NOp   1
                         Standard orientation:                         
 ---------------------------------------------------------------------
 Center     Atomic      Atomic             Coordinates (Angstroms)
 Number     Number       Type             X           Y           Z
 ---------------------------------------------------------------------
      1          6           0        0.414489    0.919146    0.005364
      2          6           0        1.801525    1.069486    0.004770
      3          6           0        2.625141   -0.056048   -0.002487
      4          6           0        2.061771   -1.332685   -0.007957
      5          6           0        0.675060   -1.482914   -0.006884
      6          6           0       -0.148668   -0.356929   -0.000620
      7          1           0        2.245195    2.075658    0.008712
      8          1           0        3.718426    0.062374   -0.003590
      9          1           0        2.711365   -2.219981   -0.013620
     10          1           0        0.230755   -2.488920   -0.011187
     11          6           0       -1.679673   -0.523132    0.000285
     12          8           0       -2.192152   -1.672187    0.024953
     13          8           0       -2.521848    0.632245   -0.026997
     14          1           0       -1.978825    1.423731   -0.043641
     15          7           0       -0.453351    2.105613    0.012413
     16          1           0       -0.274296    2.644683    0.835421
     17          1           0       -0.265030    2.661163   -0.797463
 ---------------------------------------------------------------------
 Rotational constants (GHZ):           2.2714318           1.1819517           0.7807144
 Standard basis: 6-311+G(2d,p) (5D, 7F)
 There are   332 symmetry adapted cartesian basis functions of A   symmetry.
 There are   312 symmetry adapted basis functions of A   symmetry.
   312 basis functions,   476 primitive gaussians,   332 cartesian basis functions
    36 alpha electrons       36 beta electrons
       nuclear repulsion energy       495.5155350633 Hartrees.
 NAtoms=   17 NActive=   17 NUniq=   17 SFac= 1.00D+00 NAtFMM=   60 NAOKFM=F Big=F
 Integral buffers will be    131072 words long.
 Raffenetti 2 integral format.
 Two-electron integral symmetry is turned on.
 One-electron integrals computed using PRISM.
 NBasis=   312 RedAO= T EigKep=  1.58D-06  NBF=   312
 NBsUse=   312 1.00D-06 EigRej= -1.00D+00 NBFU=   312
 ExpMin= 4.38D-02 ExpMax= 8.59D+03 ExpMxC= 1.30D+03 IAcc=3 IRadAn=         5 AccDes= 0.00D+00
 Harris functional with IExCor=  402 and IRadAn=       5 diagonalized for initial guess.
 HarFok:  IExCor=  402 AccDes= 0.00D+00 IRadAn=         5 IDoV= 1 UseB2=F ITyADJ=14
 ICtDFT=  3500011 ScaDFX=  1.000000  1.000000  1.000000  1.000000
 FoFCou: FMM=F IPFlag=           0 FMFlag=      100000 FMFlg1=           0
         NFxFlg=           0 DoJE=T BraDBF=F KetDBF=T FulRan=T
         wScrn=  0.000000 ICntrl=       500 IOpCl=  0 I1Cent=   200000004 NGrid=           0
         NMat0=    1 NMatS0=      1 NMatT0=    0 NMatD0=    1 NMtDS0=    0 NMtDT0=    0
 Petite list used in FoFCou.
 Requested convergence on RMS density matrix=1.00D-08 within  32 cycles.
 Requested convergence on MAX density matrix=1.00D-06.
 Requested convergence on             energy=1.00D-06.
 No special actions if energy rises.
 SCF Done:  E(RB3LYP) =  -476.312389019     A.U. after   14 cycles
            NFock= 14  Conv=0.75D-08     -V/T= 2.0048
 QCSCF skips out because SCF is already converged.

 **********************************************************************

            Population analysis using the SCF Density.

 **********************************************************************

 Orbital symmetries:
       Occupied  (A) (A) (A) (A) (A) (A) (A) (A) (A) (A) (A) (A)
                 (A) (A) (A) (A) (A) (A) (A) (A) (A) (A) (A) (A)
                 (A) (A) (A) (A) (A) (A) (A) (A) (A) (A) (A) (A)
       Virtual   (A) (A) (A) (A) (A) (A) (A) (A) (A) (A) (A) (A)
                 (A) (A) (A) (A) (A) (A) (A) (A) (A) (A) (A) (A)
                 (A) (A) (A) (A) (A) (A) (A) (A) (A) (A) (A) (A)
                 (A) (A) (A) (A) (A) (A) (A) (A) (A) (A) (A) (A)
                 (A) (A) (A) (A) (A) (A) (A) (A) (A) (A) (A) (A)
                 (A) (A) (A) (A) (A) (A) (A) (A) (A) (A) (A) (A)
                 (A) (A) (A) (A) (A) (A) (A) (A) (A) (A) (A) (A)
                 (A) (A) (A) (A) (A) (A) (A) (A) (A) (A) (A) (A)
                 (A) (A) (A) (A) (A) (A) (A) (A) (A) (A) (A) (A)
                 (A) (A) (A) (A) (A) (A) (A) (A) (A) (A) (A) (A)
                 (A) (A) (A) (A) (A) (A) (A) (A) (A) (A) (A) (A)
                 (A) (A) (A) (A) (A) (A) (A) (A) (A) (A) (A) (A)
                 (A) (A) (A) (A) (A) (A) (A) (A) (A) (A) (A) (A)
                 (A) (A) (A) (A) (A) (A) (A) (A) (A) (A) (A) (A)
                 (A) (A) (A) (A) (A) (A) (A) (A) (A) (A) (A) (A)
                 (A) (A) (A) (A) (A) (A) (A) (A) (A) (A) (A) (A)
                 (A) (A) (A) (A) (A) (A) (A) (A) (A) (A) (A) (A)
                 (A) (A) (A) (A) (A) (A) (A) (A) (A) (A) (A) (A)
                 (A) (A) (A) (A) (A) (A) (A) (A) (A) (A) (A) (A)
                 (A) (A) (A) (A) (A) (A) (A) (A) (A) (A) (A) (A)
                 (A) (A) (A) (A) (A) (A) (A) (A) (A) (A) (A) (A)
                 (A) (A) (A) (A) (A) (A) (A) (A) (A) (A) (A) (A)
                 (A) (A) (A) (A) (A) (A) (A) (A) (A) (A) (A) (A)
 The electronic state is 1-A.
 Alpha  occ. eigenvalues --  -19.13965 -19.10812 -14.34934 -10.31451 -10.24457
 Alpha  occ. eigenvalues --  -10.21651 -10.20763 -10.20595 -10.20347 -10.20186
 Alpha  occ. eigenvalues --   -1.05885  -0.99304  -0.94720  -0.87529  -0.78508
 Alpha  occ. eigenvalues --   -0.76395  -0.65481  -0.63244  -0.59599  -0.55821
 Alpha  occ. eigenvalues --   -0.54507  -0.51521  -0.49773  -0.47868  -0.45485
 Alpha  occ. eigenvalues --   -0.43241  -0.42518  -0.40509  -0.38840  -0.38708
 Alpha  occ. eigenvalues --   -0.38004  -0.30699  -0.30137  -0.28386  -0.28229
 Alpha  occ. eigenvalues --   -0.27476
 Alpha virt. eigenvalues --   -0.06949  -0.04398  -0.02182  -0.00172   0.01585
 Alpha virt. eigenvalues --    0.02067   0.03549   0.03798   0.03888   0.04976
 Alpha virt. eigenvalues --    0.06711   0.07062   0.07463   0.07786   0.09133
 Alpha virt. eigenvalues --    0.10612   0.10647   0.11274   0.12349   0.12634
 Alpha virt. eigenvalues --    0.13094   0.14178   0.14242   0.15035   0.15979
 Alpha virt. eigenvalues --    0.16432   0.17018   0.17126   0.17441   0.17972
 Alpha virt. eigenvalues --    0.18602   0.18883   0.19860   0.20600   0.21065
 Alpha virt. eigenvalues --    0.21101   0.22804   0.23650   0.23867   0.24288
 Alpha virt. eigenvalues --    0.24918   0.25634   0.26550   0.27122   0.27312
 Alpha virt. eigenvalues --    0.29063   0.29268   0.30570   0.30626   0.31362
 Alpha virt. eigenvalues --    0.32039   0.32373   0.33047   0.34517   0.37217
 Alpha virt. eigenvalues --    0.40179   0.42126   0.43777   0.44714   0.45435
 Alpha virt. eigenvalues --    0.45576   0.48433   0.49497   0.50016   0.50569
 Alpha virt. eigenvalues --    0.50885   0.52932   0.53660   0.54125   0.55034
 Alpha virt. eigenvalues --    0.57265   0.57630   0.59587   0.59685   0.60368
 Alpha virt. eigenvalues --    0.61035   0.61651   0.63521   0.63771   0.66203
 Alpha virt. eigenvalues --    0.67746   0.67915   0.68329   0.69328   0.70931
 Alpha virt. eigenvalues --    0.73149   0.73992   0.74502   0.75104   0.76842
 Alpha virt. eigenvalues --    0.77296   0.77495   0.78489   0.80214   0.80583
 Alpha virt. eigenvalues --    0.82131   0.82322   0.84427   0.85493   0.86957
 Alpha virt. eigenvalues --    0.89562   0.89965   0.94698   0.98131   1.00847
 Alpha virt. eigenvalues --    1.01283   1.02436   1.03274   1.07082   1.07397
 Alpha virt. eigenvalues --    1.09250   1.09550   1.12522   1.15463   1.16052
 Alpha virt. eigenvalues --    1.18417   1.20868   1.21168   1.21297   1.23264
 Alpha virt. eigenvalues --    1.24756   1.25060   1.27156   1.28889   1.31367
 Alpha virt. eigenvalues --    1.31577   1.32675   1.33287   1.37737   1.38830
 Alpha virt. eigenvalues --    1.39054   1.41215   1.44393   1.46866   1.47617
 Alpha virt. eigenvalues --    1.48246   1.48481   1.54632   1.54994   1.57359
 Alpha virt. eigenvalues --    1.58849   1.61647   1.62094   1.62604   1.66541
 Alpha virt. eigenvalues --    1.67512   1.70263   1.77389   1.79039   1.80720
 Alpha virt. eigenvalues --    1.81278   1.84240   1.85512   1.92478   1.93948
 Alpha virt. eigenvalues --    1.94675   2.00126   2.05325   2.07381   2.07925
 Alpha virt. eigenvalues --    2.14801   2.17092   2.21482   2.25754   2.27236
 Alpha virt. eigenvalues --    2.31239   2.32188   2.36284   2.47478   2.51691
 Alpha virt. eigenvalues --    2.53137   2.57846   2.58426   2.59380   2.62479
 Alpha virt. eigenvalues --    2.63073   2.64046   2.64394   2.70531   2.71709
 Alpha virt. eigenvalues --    2.73854   2.75400   2.77363   2.78125   2.81420
 Alpha virt. eigenvalues --    2.83118   2.86584   2.89297   2.91540   2.93952
 Alpha virt. eigenvalues --    2.99529   3.05741   3.07425   3.09651   3.09869
 Alpha virt. eigenvalues --    3.12337   3.15815   3.18743   3.24354   3.27154
 Alpha virt. eigenvalues --    3.27673   3.27972   3.32528   3.33138   3.34086
 Alpha virt. eigenvalues --    3.39329   3.40034   3.40696   3.42548   3.44864
 Alpha virt. eigenvalues --    3.48297   3.49938   3.52131   3.55874   3.56278
 Alpha virt. eigenvalues --    3.57463   3.58073   3.58936   3.60526   3.61805
 Alpha virt. eigenvalues --    3.66109   3.70958   3.74048   3.74871   3.77168
 Alpha virt. eigenvalues --    3.77539   3.81929   3.83266   3.89454   3.91138
 Alpha virt. eigenvalues --    3.93883   3.95969   4.00647   4.03405   4.05402
 Alpha virt. eigenvalues --    4.13762   4.31102   4.40295   4.49672   4.58696
 Alpha virt. eigenvalues --    4.66754   4.72048   4.79529   4.96581   4.98394
 Alpha virt. eigenvalues --    5.03215   5.05543   5.10633   5.21465   5.23221
 Alpha virt. eigenvalues --    5.24603   5.30145   5.33545   5.49187   5.85514
 Alpha virt. eigenvalues --    6.04557   6.77343   6.82077   6.87869   6.96923
 Alpha virt. eigenvalues --    7.05022   7.05502   7.14823   7.25513   7.39645
 Alpha virt. eigenvalues --    7.41887  23.61631  23.88064  23.97436  24.01127
 Alpha virt. eigenvalues --   24.07157  24.14036  24.16419  35.73932  49.96433
 Alpha virt. eigenvalues --   50.04306
          Condensed to atoms (all electrons):
               1          2          3          4          5          6
     1  C   11.245211  -2.061985   0.805374  -0.460215  -0.511051  -2.291791
     2  C   -2.061985   9.288042  -0.461637   0.661460  -2.305597   0.256194
     3  C    0.805374  -0.461637   5.725964   0.074162   0.993167  -1.122382
     4  C   -0.460215   0.661460   0.074162   6.649411  -1.833218   0.522459
     5  C   -0.511051  -2.305597   0.993167  -1.833218  11.634284  -1.312319
     6  C   -2.291791   0.256194  -1.122382   0.522459  -1.312319   8.890109
     7  H   -0.194141   0.585489  -0.066064   0.044545  -0.035259  -0.001949
     8  H    0.042316  -0.086514   0.428404  -0.070109   0.022984   0.000334
     9  H   -0.011228   0.029330  -0.077324   0.426093  -0.068199   0.037482
    10  H    0.008399   0.007444   0.024760  -0.063227   0.410186  -0.044978
    11  C   -0.120679   0.183419  -0.089165  -0.033517  -0.184773  -0.077775
    12  O   -0.017675   0.000520  -0.003473   0.109187  -0.160606   0.011998
    13  O   -0.377247  -0.009013  -0.002642   0.011644   0.140646   0.214815
    14  H    0.069999   0.077908   0.002050  -0.009550  -0.046855  -0.086459
    15  N    0.081370  -0.063868   0.007116   0.001247   0.065857  -0.050006
    16  H   -0.022646   0.049810  -0.012340   0.002884  -0.011035  -0.018394
    17  H   -0.025368   0.027353  -0.013466   0.002908  -0.009910  -0.001481
               7          8          9         10         11         12
     1  C   -0.194141   0.042316  -0.011228   0.008399  -0.120679  -0.017675
     2  C    0.585489  -0.086514   0.029330   0.007444   0.183419   0.000520
     3  C   -0.066064   0.428404  -0.077324   0.024760  -0.089165  -0.003473
     4  C    0.044545  -0.070109   0.426093  -0.063227  -0.033517   0.109187
     5  C   -0.035259   0.022984  -0.068199   0.410186  -0.184773  -0.160606
     6  C   -0.001949   0.000334   0.037482  -0.044978  -0.077775   0.011998
     7  H    0.569358  -0.005388  -0.000386   0.000074   0.001592   0.000013
     8  H   -0.005388   0.577198  -0.005398  -0.000353   0.000014   0.000010
     9  H   -0.000386  -0.005398   0.572542  -0.004998   0.002029   0.000012
    10  H    0.000074  -0.000353  -0.004998   0.520002  -0.006820   0.009221
    11  C    0.001592   0.000014   0.002029  -0.006820   5.215251   0.423514
    12  O    0.000013   0.000010   0.000012   0.009221   0.423514   8.153562
    13  O    0.000049  -0.000009   0.000023   0.000556   0.217949  -0.042415
    14  H    0.000138  -0.000005  -0.000002  -0.000030   0.016257   0.002854
    15  N    0.002225  -0.001471   0.000364  -0.000627  -0.152133  -0.000308
    16  H    0.001120   0.000004  -0.000004   0.000018   0.003994   0.000189
    17  H    0.001253   0.000001  -0.000004   0.000020   0.008795   0.000118
              13         14         15         16         17
     1  C   -0.377247   0.069999   0.081370  -0.022646  -0.025368
     2  C   -0.009013   0.077908  -0.063868   0.049810   0.027353
     3  C   -0.002642   0.002050   0.007116  -0.012340  -0.013466
     4  C    0.011644  -0.009550   0.001247   0.002884   0.002908
     5  C    0.140646  -0.046855   0.065857  -0.011035  -0.009910
     6  C    0.214815  -0.086459  -0.050006  -0.018394  -0.001481
     7  H    0.000049   0.000138   0.002225   0.001120   0.001253
     8  H   -0.000009  -0.000005  -0.001471   0.000004   0.000001
     9  H    0.000023  -0.000002   0.000364  -0.000004  -0.000004
    10  H    0.000556  -0.000030  -0.000627   0.000018   0.000020
    11  C    0.217949   0.016257  -0.152133   0.003994   0.008795
    12  O   -0.042415   0.002854  -0.000308   0.000189   0.000118
    13  O    8.040922   0.274933  -0.003527  -0.002407  -0.002067
    14  H    0.274933   0.336728  -0.043269   0.001792   0.000381
    15  N   -0.003527  -0.043269   7.163009   0.337630   0.340235
    16  H   -0.002407   0.001792   0.337630   0.457916  -0.039659
    17  H   -0.002067   0.000381   0.340235  -0.039659   0.459931
 Mulliken charges:
               1
     1  C   -0.158642
     2  C   -0.178355
     3  C   -0.212504
     4  C   -0.036164
     5  C   -0.788303
     6  C    1.074142
     7  H    0.097331
     8  H    0.097981
     9  H    0.099669
    10  H    0.140354
    11  C    0.592049
    12  O   -0.486720
    13  O   -0.462210
    14  H    0.403129
    15  N   -0.683845
    16  H    0.251128
    17  H    0.250961
 Sum of Mulliken charges =   0.00000
 Mulliken charges with hydrogens summed into heavy atoms:
               1
     1  C   -0.158642
     2  C   -0.081024
     3  C   -0.114523
     4  C    0.063505
     5  C   -0.647949
     6  C    1.074142
    11  C    0.592049
    12  O   -0.486720
    13  O   -0.059081
    15  N   -0.181756
 Electronic spatial extent (au):  <R**2>=           1402.4954
 Charge=              0.0000 electrons
 Dipole moment (field-independent basis, Debye):
    X=              5.8020    Y=              4.0781    Z=             -0.0320  Tot=              7.0919
 Quadrupole moment (field-independent basis, Debye-Ang):
   XX=            -67.6152   YY=            -50.0583   ZZ=            -59.0586
   XY=             -5.9175   XZ=              0.0662   YZ=              0.1262
 Traceless Quadrupole moment (field-independent basis, Debye-Ang):
   XX=             -8.7045   YY=              8.8524   ZZ=             -0.1479
   XY=             -5.9175   XZ=              0.0662   YZ=              0.1262
 Octapole moment (field-independent basis, Debye-Ang**2):
  XXX=             46.3167  YYY=             30.8158  ZZZ=              0.1840  XYY=             10.7700
  XXY=             10.2245  XXZ=             -0.1431  XZZ=            -11.3735  YZZ=              6.9354
  YYZ=             -0.2571  XYZ=             -0.0627
 Hexadecapole moment (field-independent basis, Debye-Ang**3):
 XXXX=          -1179.1389 YYYY=           -551.7985 ZZZZ=            -68.3549 XXXY=            -27.5366
 XXXZ=             -0.1102 YYYX=            -33.8155 YYYZ=              0.3822 ZZZX=              0.0045
 ZZZY=              0.1573 XXYY=           -304.2643 XXZZ=           -214.4634 YYZZ=           -109.2313
 XXYZ=              0.3456 YYXZ=              0.5548 ZZXY=              1.3987
 N-N= 4.955155350633D+02 E-N=-2.103264127709D+03  KE= 4.740561942199D+02
 Calling FoFJK, ICntrl=      2127 FMM=F ISym2X=0 I1Cent= 0 IOpClX= 0 NMat=1 NMatS=1 NMatT=0.
 ***** Axes restored to original set *****
 -------------------------------------------------------------------
 Center     Atomic                   Forces (Hartrees/Bohr)
 Number     Number              X              Y              Z
 -------------------------------------------------------------------
      1        6           0.003420838    0.011927412   -0.000054724
      2        6           0.005499915    0.002429965   -0.000070435
      3        6           0.006449817    0.001593441    0.000047330
      4        6           0.000851014   -0.005377569   -0.000065568
      5        6           0.002891363   -0.010888149   -0.000012899
      6        6          -0.029915627    0.010154440   -0.000129430
      7        1          -0.004616017   -0.008915715    0.000024129
      8        1          -0.010522070   -0.000684466    0.000008932
      9        1          -0.006853508    0.008543475    0.000057741
     10        1           0.001633608    0.012232274    0.000081064
     11        6          -0.044470450   -0.034624753    0.000586510
     12        8           0.029799872    0.073460056   -0.001629841
     13        8           0.008291596   -0.077578228    0.000684408
     14        1           0.021833801    0.016159803    0.001074363
     15        7           0.009876555   -0.019137449   -0.000970603
     16        1           0.002441577    0.010165823    0.009224544
     17        1           0.003387715    0.010539641   -0.008855521
 -------------------------------------------------------------------
 Cartesian Forces:  Max     0.077578228 RMS     0.019313601

 GradGradGradGradGradGradGradGradGradGradGradGradGradGradGradGradGradGrad
 Berny optimization.
 FormGI is forming the generalized inverse of G from B-inverse, IUseBI=4.
 Internal  Forces:  Max     0.079244810 RMS     0.015272902
 Search for a local minimum.
 Step number   1 out of a maximum of   86
 All quantities printed in internal units (Hartrees-Bohrs-Radians)
 Mixed Optimization -- RFO/linear search
 Second derivative matrix not updated -- first step.
 ITU=  0
     Eigenvalues ---    0.00237   0.00588   0.00766   0.01295   0.01562
     Eigenvalues ---    0.01731   0.02152   0.02153   0.02154   0.02155
     Eigenvalues ---    0.02155   0.02156   0.02157   0.05453   0.16000
     Eigenvalues ---    0.16000   0.16000   0.16000   0.16000   0.16000
     Eigenvalues ---    0.16000   0.22000   0.22493   0.24488   0.25000
     Eigenvalues ---    0.25000   0.25000   0.25000   0.28519   0.33709
     Eigenvalues ---    0.33717   0.33717   0.33720   0.35740   0.40989
     Eigenvalues ---    0.42224   0.42380   0.46412   0.46453   0.46466
     Eigenvalues ---    0.46497   0.47688   0.47688   0.55473   0.80209
 RFO step:  Lambda=-3.90266321D-02 EMin= 2.36821779D-03
 Linear search not attempted -- first point.
 Maximum step size (   0.300) exceeded in Quadratic search.
    -- Step size scaled by   0.942
 Iteration  1 RMS(Cart)=  0.13899701 RMS(Int)=  0.00474033
 Iteration  2 RMS(Cart)=  0.00837491 RMS(Int)=  0.00003752
 Iteration  3 RMS(Cart)=  0.00002594 RMS(Int)=  0.00003508
 Iteration  4 RMS(Cart)=  0.00000000 RMS(Int)=  0.00003508
 Variable       Old X    -DE/DX   Delta X   Delta X   Delta X     New X
                                 (Linear)    (Quad)   (Total)
    R1        2.63647  -0.00092   0.00000  -0.00077  -0.00078   2.63569
    R2        2.63585   0.02038   0.00000   0.03974   0.03977   2.67562
    R3        2.77790  -0.00801   0.00000  -0.01902  -0.01902   2.75887
    R4        2.63562  -0.00699   0.00000  -0.01377  -0.01381   2.62182
    R5        2.07805  -0.01002   0.00000  -0.02508  -0.02508   2.05297
    R6        2.63698  -0.00670   0.00000  -0.01421  -0.01424   2.62273
    R7        2.07810  -0.01053   0.00000  -0.02637  -0.02637   2.05173
    R8        2.63584  -0.00847   0.00000  -0.01679  -0.01678   2.61906
    R9        2.07810  -0.01094   0.00000  -0.02739  -0.02739   2.05071
   R10        2.63643  -0.00066   0.00000  -0.00052  -0.00048   2.63595
   R11        2.07825  -0.01185   0.00000  -0.02966  -0.02966   2.04858
   R12        2.91018  -0.01293   0.00000  -0.03754  -0.03754   2.87264
   R13        2.37803  -0.07924   0.00000  -0.08871  -0.08871   2.28933
   R14        2.70231  -0.06740   0.00000  -0.14136  -0.14136   2.56095
   R15        1.81414   0.02565   0.00000   0.04068   0.04068   1.85482
   R16        1.88973   0.01351   0.00000   0.02465   0.02465   1.91438
   R17        1.88973   0.01367   0.00000   0.02494   0.02494   1.91466
    A1        2.09437  -0.00470   0.00000  -0.01136  -0.01133   2.08304
    A2        2.09435  -0.01596   0.00000  -0.05398  -0.05400   2.04035
    A3        2.09447   0.02067   0.00000   0.06534   0.06532   2.15979
    A4        2.09455   0.00550   0.00000   0.01975   0.01969   2.11424
    A5        2.09406  -0.00340   0.00000  -0.01295  -0.01293   2.08113
    A6        2.09458  -0.00210   0.00000  -0.00680  -0.00677   2.08781
    A7        2.09429  -0.00010   0.00000  -0.00578  -0.00586   2.08844
    A8        2.09462  -0.00042   0.00000   0.00066   0.00070   2.09532
    A9        2.09427   0.00052   0.00000   0.00511   0.00515   2.09943
   A10        2.09429   0.00094   0.00000  -0.00247  -0.00250   2.09179
   A11        2.09407   0.00003   0.00000   0.00361   0.00363   2.09769
   A12        2.09483  -0.00097   0.00000  -0.00114  -0.00112   2.09370
   A13        2.09448   0.00771   0.00000   0.02679   0.02684   2.12132
   A14        2.09459  -0.00027   0.00000   0.00355   0.00353   2.09812
   A15        2.09412  -0.00744   0.00000  -0.03034  -0.03037   2.06375
   A16        2.09440  -0.00935   0.00000  -0.02693  -0.02685   2.06755
   A17        2.09453   0.04450   0.00000   0.14320   0.14316   2.23769
   A18        2.09425  -0.03515   0.00000  -0.11627  -0.11631   1.97795
   A19        2.09836  -0.00100   0.00000  -0.00326  -0.00326   2.09510
   A20        2.09242   0.00844   0.00000   0.02749   0.02749   2.11991
   A21        2.09241  -0.00744   0.00000  -0.02423  -0.02423   2.06818
   A22        1.91063  -0.01611   0.00000  -0.07623  -0.07623   1.83440
   A23        1.91063   0.00270   0.00000   0.01006   0.01007   1.92070
   A24        1.91063   0.00191   0.00000   0.00631   0.00632   1.91695
   A25        1.91063  -0.00384   0.00000  -0.02358  -0.02357   1.88706
    D1        0.00056   0.00015   0.00000   0.00218   0.00221   0.00278
    D2        3.14078   0.00005   0.00000   0.00064   0.00069   3.14147
    D3       -3.14112   0.00035   0.00000   0.00565   0.00554  -3.13558
    D4       -0.00091   0.00025   0.00000   0.00411   0.00401   0.00311
    D5        0.00026  -0.00027   0.00000  -0.00401  -0.00397  -0.00370
    D6        3.14140  -0.00033   0.00000  -0.00500  -0.00501   3.13639
    D7       -3.14124  -0.00047   0.00000  -0.00747  -0.00752   3.13442
    D8       -0.00010  -0.00054   0.00000  -0.00846  -0.00857  -0.00867
    D9       -1.05546   0.00050   0.00000   0.00095   0.00094  -1.05452
   D10        1.03894  -0.00137   0.00000  -0.01791  -0.01792   1.02101
   D11        2.08604   0.00071   0.00000   0.00441   0.00442   2.09047
   D12       -2.10275  -0.00117   0.00000  -0.01445  -0.01444  -2.11719
   D13       -0.00099   0.00004   0.00000   0.00066   0.00064  -0.00035
   D14        3.14093  -0.00004   0.00000  -0.00067  -0.00068   3.14024
   D15       -3.14120   0.00014   0.00000   0.00221   0.00218  -3.13903
   D16        0.00071   0.00005   0.00000   0.00087   0.00085   0.00156
   D17        0.00059  -0.00011   0.00000  -0.00169  -0.00170  -0.00111
   D18       -3.14153  -0.00004   0.00000  -0.00068  -0.00069   3.14097
   D19       -3.14132  -0.00002   0.00000  -0.00036  -0.00037   3.14149
   D20       -0.00026   0.00004   0.00000   0.00066   0.00064   0.00038
   D21        0.00023  -0.00001   0.00000  -0.00012  -0.00015   0.00008
   D22       -3.14159   0.00013   0.00000   0.00208   0.00207  -3.13952
   D23       -3.14083  -0.00007   0.00000  -0.00114  -0.00116   3.14120
   D24        0.00054   0.00007   0.00000   0.00106   0.00105   0.00160
   D25       -0.00066   0.00020   0.00000   0.00298   0.00298   0.00233
   D26        3.14138   0.00024   0.00000   0.00391   0.00381  -3.13799
   D27        3.14116   0.00006   0.00000   0.00077   0.00081  -3.14122
   D28        0.00001   0.00010   0.00000   0.00170   0.00164   0.00165
   D29       -3.11395  -0.00063   0.00000  -0.01464  -0.01464  -3.12859
   D30        0.02764  -0.00071   0.00000  -0.01625  -0.01625   0.01139
   D31        0.02719  -0.00069   0.00000  -0.01562  -0.01562   0.01157
   D32       -3.11440  -0.00077   0.00000  -0.01722  -0.01723  -3.13164
   D33        0.00000  -0.00115   0.00000  -0.02080  -0.02080  -0.02080
   D34        3.14159  -0.00123   0.00000  -0.02240  -0.02239   3.11920
         Item               Value     Threshold  Converged?
 Maximum Force            0.079245     0.000450     NO 
 RMS     Force            0.015273     0.000300     NO 
 Maximum Displacement     0.521118     0.001800     NO 
 RMS     Displacement     0.136072     0.001200     NO 
 Predicted change in Energy=-2.125590D-02
 GradGradGradGradGradGradGradGradGradGradGradGradGradGradGradGradGradGrad

                          Input orientation:                          
 ---------------------------------------------------------------------
 Center     Atomic      Atomic             Coordinates (Angstroms)
 Number     Number       Type             X           Y           Z
 ---------------------------------------------------------------------
      1          6           0        0.414036    0.988620    0.000938
      2          6           0        1.805877    1.078441    0.006299
      3          6           0        2.598292   -0.060399    0.002511
      4          6           0        2.000555   -1.312944   -0.006352
      5          6           0        0.618584   -1.417804   -0.010023
      6          6           0       -0.198989   -0.287649   -0.005107
      7          1           0        2.274380    2.058603    0.010814
      8          1           0        3.680245    0.030011    0.005528
      9          1           0        2.612090   -2.209408   -0.009961
     10          1           0        0.145512   -2.393186   -0.014999
     11          6           0       -1.682777   -0.618079   -0.005311
     12          8           0       -2.046787   -1.773530    0.002658
     13          8           0       -2.624445    0.356481   -0.012412
     14          1           0       -2.120851    1.198830    0.003070
     15          7           0       -0.329033    2.245300   -0.002249
     16          1           0       -0.104611    2.783547    0.826115
     17          1           0       -0.072194    2.794469   -0.814046
 ---------------------------------------------------------------------
                    Distance matrix (angstroms):
                    1          2          3          4          5
     1  C    0.000000
     2  C    1.394746   0.000000
     3  C    2.423100   1.387405   0.000000
     4  C    2.795405   2.399330   1.387890   0.000000
     5  C    2.415126   2.764266   2.400405   1.385948   0.000000
     6  C    1.415875   2.426071   2.806507   2.426772   1.394883
     7  H    2.146122   1.086385   2.143632   3.382692   3.850649
     8  H    3.403979   2.147665   1.085729   2.150588   3.386765
     9  H    3.880585   3.385291   2.149089   1.085189   2.144925
    10  H    3.392488   3.848306   3.385015   2.146667   1.084063
    11  C    2.641619   3.879307   4.317246   3.748302   2.436359
    12  O    3.699341   4.793409   4.950916   4.073474   2.689034
    13  O    3.103570   4.488800   5.239369   4.917076   3.696665
    14  H    2.543590   3.928574   4.884257   4.826499   3.788331
    15  N    1.459933   2.432996   3.726325   4.253010   3.783697
    16  H    2.042468   2.688763   4.008994   4.680381   4.344363
    17  H    2.040027   2.672988   3.993561   4.671135   4.343601
                    6          7          8          9         10
     6  C    0.000000
     7  H    3.409210   0.000000
     8  H    3.892233   2.468131   0.000000
     9  H    3.405194   4.281402   2.481168   0.000000
    10  H    2.133557   4.934691   4.285632   2.473420   0.000000
    11  C    1.520135   4.777445   5.402050   4.580200   2.548282
    12  O    2.371130   5.775620   6.004303   4.679239   2.278258
    13  O    2.509540   5.186158   6.313162   5.831389   3.902991
    14  H    2.429659   4.478541   5.917674   5.832409   4.247271
    15  N    2.536287   2.610131   4.580597   5.338041   4.662714
    16  H    3.183094   2.617223   4.751890   5.745354   5.250581
    17  H    3.189030   2.593897   4.732307   5.735043   5.253345
                   11         12         13         14         15
    11  C    0.000000
    12  O    1.211459   0.000000
    13  O    1.355196   2.207003   0.000000
    14  H    1.868994   2.973283   0.981528   0.000000
    15  N    3.167266   4.370548   2.972651   2.075028   0.000000
    16  H    3.840956   5.021661   3.597685   2.693317   1.013046
    17  H    3.859212   5.043078   3.619446   2.722268   1.013197
                   16         17
    16  H    0.000000
    17  H    1.640518   0.000000
 Stoichiometry    C7H7NO2
 Framework group  C1[X(C7H7NO2)]
 Deg. of freedom    45
 Full point group                 C1      NOp   1
 Largest Abelian subgroup         C1      NOp   1
 Largest concise Abelian subgroup C1      NOp   1
                         Standard orientation:                         
 ---------------------------------------------------------------------
 Center     Atomic      Atomic             Coordinates (Angstroms)
 Number     Number       Type             X           Y           Z
 ---------------------------------------------------------------------
      1          6           0        0.524821    0.950754    0.001612
      2          6           0        1.917832    0.881306    0.005309
      3          6           0        2.575230   -0.340460    0.002354
      4          6           0        1.838572   -1.516697   -0.003976
      5          6           0        0.453655   -1.463311   -0.005970
      6          6           0       -0.229727   -0.247305   -0.001847
      7          1           0        2.495037    1.801664    0.007841
      8          1           0        3.660439   -0.373996    0.004047
      9          1           0        2.343906   -2.477044   -0.006915
     10          1           0       -0.127546   -2.378401   -0.008967
     11          6           0       -1.741512   -0.406405    0.000074
     12          8           0       -2.234875   -1.512806    0.010174
     13          8           0       -2.565934    0.669155   -0.007451
     14          1           0       -1.969566    1.448614    0.006217
     15          7           0       -0.070127    2.283955   -0.002639
     16          1           0        0.215245    2.794233    0.824671
     17          1           0        0.246625    2.799154   -0.815539
 ---------------------------------------------------------------------
 Rotational constants (GHZ):           2.2092024           1.1953210           0.7788971
 Standard basis: 6-311+G(2d,p) (5D, 7F)
 There are   332 symmetry adapted cartesian basis functions of A   symmetry.
 There are   312 symmetry adapted basis functions of A   symmetry.
   312 basis functions,   476 primitive gaussians,   332 cartesian basis functions
    36 alpha electrons       36 beta electrons
       nuclear repulsion energy       496.7758727941 Hartrees.
 NAtoms=   17 NActive=   17 NUniq=   17 SFac= 1.00D+00 NAtFMM=   60 NAOKFM=F Big=F
 Integral buffers will be    131072 words long.
 Raffenetti 2 integral format.
 Two-electron integral symmetry is turned on.
 One-electron integrals computed using PRISM.
 NBasis=   312 RedAO= T EigKep=  1.58D-06  NBF=   312
 NBsUse=   312 1.00D-06 EigRej= -1.00D+00 NBFU=   312
 Initial guess from the checkpoint file:  "acid-2-new.chk"
 B after Tr=     0.000000    0.000000    0.000000
         Rot=    0.998884    0.000285   -0.000166    0.047232 Ang=   5.41 deg.
 ExpMin= 4.38D-02 ExpMax= 8.59D+03 ExpMxC= 1.30D+03 IAcc=3 IRadAn=         5 AccDes= 0.00D+00
 Harris functional with IExCor=  402 and IRadAn=       5 diagonalized for initial guess.
 HarFok:  IExCor=  402 AccDes= 0.00D+00 IRadAn=         5 IDoV= 1 UseB2=F ITyADJ=14
 ICtDFT=  3500011 ScaDFX=  1.000000  1.000000  1.000000  1.000000
 FoFCou: FMM=F IPFlag=           0 FMFlag=      100000 FMFlg1=           0
         NFxFlg=           0 DoJE=T BraDBF=F KetDBF=T FulRan=T
         wScrn=  0.000000 ICntrl=       500 IOpCl=  0 I1Cent=   200000004 NGrid=           0
         NMat0=    1 NMatS0=      1 NMatT0=    0 NMatD0=    1 NMtDS0=    0 NMtDT0=    0
 Petite list used in FoFCou.
 Requested convergence on RMS density matrix=1.00D-08 within  32 cycles.
 Requested convergence on MAX density matrix=1.00D-06.
 Requested convergence on             energy=1.00D-06.
 No special actions if energy rises.
 SCF Done:  E(RB3LYP) =  -476.321924076     A.U. after   13 cycles
            NFock= 13  Conv=0.40D-08     -V/T= 2.0041
 QCSCF skips out because SCF is already converged.
 Calling FoFJK, ICntrl=      2127 FMM=F ISym2X=0 I1Cent= 0 IOpClX= 0 NMat=1 NMatS=1 NMatT=0.
 ***** Axes restored to original set *****
 -------------------------------------------------------------------
 Center     Atomic                   Forces (Hartrees/Bohr)
 Number     Number              X              Y              Z
 -------------------------------------------------------------------
      1        6           0.002165621    0.003940248   -0.000016336
      2        6           0.001967482   -0.004189484   -0.000233466
      3        6           0.003257830    0.000819575   -0.000005493
      4        6           0.000409102   -0.002556255   -0.000035096
      5        6           0.006682344   -0.004130532    0.000238899
      6        6          -0.005755040    0.010952844   -0.000047771
      7        1          -0.001549412   -0.000911469    0.000057539
      8        1          -0.001361340    0.000191074    0.000025630
      9        1          -0.001059767    0.000984487   -0.000017843
     10        1          -0.000453619    0.002917402    0.000002158
     11        6          -0.014270670   -0.014129226    0.000371048
     12        8           0.003005914    0.008231286   -0.000417476
     13        8           0.025964107    0.006595974    0.000720040
     14        1          -0.004736272    0.006176991   -0.000908533
     15        7          -0.012846668   -0.018093907    0.000039628
     16        1          -0.000529869    0.001593496    0.000662394
     17        1          -0.000889744    0.001607496   -0.000435323
 -------------------------------------------------------------------
 Cartesian Forces:  Max     0.025964107 RMS     0.006339557

 GradGradGradGradGradGradGradGradGradGradGradGradGradGradGradGradGradGrad
 Berny optimization.
 Using GEDIIS/GDIIS optimizer.
 FormGI is forming the generalized inverse of G from B-inverse, IUseBI=4.
 Internal  Forces:  Max     0.033195271 RMS     0.008995995
 Search for a local minimum.
 Step number   2 out of a maximum of   86
 All quantities printed in internal units (Hartrees-Bohrs-Radians)
 Mixed Optimization -- RFO/linear search
 Update second derivatives using D2CorX and points    1    2
 DE= -9.54D-03 DEPred=-2.13D-02 R= 4.49D-01
 Trust test= 4.49D-01 RLast= 3.05D-01 DXMaxT set to 3.00D-01
 ITU=  0  0
 Use linear search instead of GDIIS.
     Eigenvalues ---    0.00237   0.00582   0.00766   0.01298   0.01544
     Eigenvalues ---    0.01724   0.02152   0.02153   0.02154   0.02155
     Eigenvalues ---    0.02156   0.02156   0.02157   0.05438   0.15837
     Eigenvalues ---    0.16000   0.16000   0.16000   0.16000   0.16000
     Eigenvalues ---    0.16298   0.22000   0.22244   0.23192   0.24472
     Eigenvalues ---    0.25000   0.25000   0.27809   0.31688   0.33710
     Eigenvalues ---    0.33717   0.33719   0.35069   0.35890   0.40860
     Eigenvalues ---    0.42153   0.45283   0.46412   0.46438   0.46479
     Eigenvalues ---    0.47402   0.47688   0.54435   0.61441   0.77569
 RFO step:  Lambda=-9.04978426D-03 EMin= 2.37342490D-03
 Quartic linear search produced a step of -0.32147.
 Iteration  1 RMS(Cart)=  0.10424598 RMS(Int)=  0.00352870
 Iteration  2 RMS(Cart)=  0.00491373 RMS(Int)=  0.00005560
 Iteration  3 RMS(Cart)=  0.00000910 RMS(Int)=  0.00005522
 Iteration  4 RMS(Cart)=  0.00000000 RMS(Int)=  0.00005522
 Variable       Old X    -DE/DX   Delta X   Delta X   Delta X     New X
                                 (Linear)    (Quad)   (Total)
    R1        2.63569   0.00024   0.00025  -0.00079  -0.00053   2.63515
    R2        2.67562  -0.02203  -0.01278  -0.01046  -0.02326   2.65236
    R3        2.75887  -0.00556   0.00612  -0.02058  -0.01447   2.74441
    R4        2.62182   0.00261   0.00444  -0.00350   0.00095   2.62277
    R5        2.05297  -0.00149   0.00806  -0.01640  -0.00834   2.04463
    R6        2.62273   0.00424   0.00458  -0.00070   0.00389   2.62663
    R7        2.05173  -0.00134   0.00848  -0.01680  -0.00832   2.04341
    R8        2.61906   0.00108   0.00539  -0.00713  -0.00173   2.61733
    R9        2.05071  -0.00141   0.00880  -0.01748  -0.00868   2.04203
   R10        2.63595   0.00323   0.00015   0.00388   0.00403   2.63997
   R11        2.04858  -0.00243   0.00954  -0.02070  -0.01116   2.03742
   R12        2.87264  -0.01122   0.01207  -0.04550  -0.03343   2.83921
   R13        2.28933  -0.00876   0.02852  -0.05895  -0.03043   2.25889
   R14        2.56095  -0.00556   0.04544  -0.08690  -0.04146   2.51949
   R15        1.85482   0.00286  -0.01308   0.02652   0.01344   1.86826
   R16        1.91438   0.00127  -0.00793   0.01558   0.00765   1.92203
   R17        1.91466   0.00099  -0.00802   0.01535   0.00733   1.92200
    A1        2.08304   0.00323   0.00364  -0.00044   0.00319   2.08622
    A2        2.04035   0.02724   0.01736   0.04515   0.06251   2.10286
    A3        2.15979  -0.03047  -0.02100  -0.04470  -0.06570   2.09410
    A4        2.11424  -0.00250  -0.00633   0.00242  -0.00390   2.11034
    A5        2.08113   0.00022   0.00416  -0.00675  -0.00260   2.07853
    A6        2.08781   0.00228   0.00218   0.00433   0.00650   2.09431
    A7        2.08844  -0.00095   0.00188  -0.00177   0.00013   2.08857
    A8        2.09532   0.00016  -0.00023  -0.00138  -0.00162   2.09371
    A9        2.09943   0.00079  -0.00166   0.00315   0.00149   2.10091
   A10        2.09179  -0.00147   0.00080  -0.00116  -0.00035   2.09144
   A11        2.09769   0.00106  -0.00117   0.00298   0.00181   2.09950
   A12        2.09370   0.00041   0.00036  -0.00182  -0.00146   2.09224
   A13        2.12132  -0.00414  -0.00863   0.00210  -0.00654   2.11478
   A14        2.09812   0.00379  -0.00113   0.01359   0.01246   2.11058
   A15        2.06375   0.00035   0.00976  -0.01568  -0.00592   2.05783
   A16        2.06755   0.00584   0.00863  -0.00114   0.00747   2.07502
   A17        2.23769  -0.03320  -0.04602  -0.01224  -0.05825   2.17945
   A18        1.97795   0.02736   0.03739   0.01337   0.05077   2.02872
   A19        2.09510   0.01553   0.00105   0.03896   0.03997   2.13507
   A20        2.11991  -0.03197  -0.00884  -0.06952  -0.07839   2.04151
   A21        2.06818   0.01643   0.00779   0.03058   0.03834   2.10652
   A22        1.83440   0.01344   0.02451   0.01905   0.04355   1.87796
   A23        1.92070   0.00185  -0.00324   0.01547   0.01214   1.93284
   A24        1.91695   0.00245  -0.00203   0.01616   0.01404   1.93099
   A25        1.88706  -0.00121   0.00758  -0.00868  -0.00127   1.88579
    D1        0.00278  -0.00011  -0.00071  -0.00224  -0.00294  -0.00016
    D2        3.14147   0.00001  -0.00022   0.00072   0.00054  -3.14118
    D3       -3.13558  -0.00018  -0.00178  -0.00713  -0.00910   3.13850
    D4        0.00311  -0.00007  -0.00129  -0.00416  -0.00562  -0.00251
    D5       -0.00370   0.00018   0.00127   0.00443   0.00571   0.00201
    D6        3.13639   0.00022   0.00161   0.00588   0.00750  -3.13929
    D7        3.13442   0.00037   0.00242   0.00985   0.01209  -3.13667
    D8       -0.00867   0.00042   0.00276   0.01130   0.01388   0.00521
    D9       -1.05452  -0.00043  -0.00030   0.00792   0.00754  -1.04698
   D10        1.02101   0.00073   0.00576   0.01671   0.02253   1.04355
   D11        2.09047  -0.00058  -0.00142   0.00269   0.00121   2.09167
   D12       -2.11719   0.00058   0.00464   0.01148   0.01620  -2.10099
   D13       -0.00035  -0.00001  -0.00021  -0.00074  -0.00098  -0.00132
   D14        3.14024   0.00006   0.00022   0.00119   0.00141  -3.14154
   D15       -3.13903  -0.00012  -0.00070  -0.00370  -0.00447   3.13969
   D16        0.00156  -0.00005  -0.00027  -0.00177  -0.00209  -0.00053
   D17       -0.00111   0.00006   0.00055   0.00148   0.00203   0.00093
   D18        3.14097   0.00003   0.00022   0.00070   0.00092  -3.14130
   D19        3.14149  -0.00001   0.00012  -0.00045  -0.00036   3.14114
   D20        0.00038  -0.00004  -0.00021  -0.00123  -0.00147  -0.00109
   D21        0.00008   0.00004   0.00005   0.00083   0.00088   0.00096
   D22       -3.13952  -0.00006  -0.00066  -0.00210  -0.00281   3.14086
   D23        3.14120   0.00007   0.00037   0.00161   0.00199  -3.14000
   D24        0.00160  -0.00004  -0.00034  -0.00131  -0.00170  -0.00010
   D25        0.00233  -0.00015  -0.00096  -0.00377  -0.00475  -0.00243
   D26       -3.13799  -0.00014  -0.00123  -0.00499  -0.00630   3.13890
   D27       -3.14122  -0.00005  -0.00026  -0.00087  -0.00115   3.14081
   D28        0.00165  -0.00004  -0.00053  -0.00209  -0.00270  -0.00104
   D29       -3.12859   0.00010   0.00471   0.03470   0.03939  -3.08920
   D30        0.01139   0.00038   0.00522   0.04973   0.05495   0.06634
   D31        0.01157   0.00013   0.00502   0.03608   0.04110   0.05268
   D32       -3.13164   0.00042   0.00554   0.05111   0.05667  -3.07497
   D33       -0.02080   0.00065   0.00669   0.03003   0.03673   0.01593
   D34        3.11920   0.00093   0.00720   0.04485   0.05203  -3.11195
         Item               Value     Threshold  Converged?
 Maximum Force            0.033195     0.000450     NO 
 RMS     Force            0.008996     0.000300     NO 
 Maximum Displacement     0.437346     0.001800     NO 
 RMS     Displacement     0.104055     0.001200     NO 
 Predicted change in Energy=-6.448471D-03
 GradGradGradGradGradGradGradGradGradGradGradGradGradGradGradGradGradGrad

                          Input orientation:                          
 ---------------------------------------------------------------------
 Center     Atomic      Atomic             Coordinates (Angstroms)
 Number     Number       Type             X           Y           Z
 ---------------------------------------------------------------------
      1          6           0        0.408432    0.957209    0.013544
      2          6           0        1.798476    1.067772    0.004682
      3          6           0        2.603598   -0.062659   -0.009294
      4          6           0        2.018941   -1.323660   -0.012959
      5          6           0        0.639124   -1.443365   -0.003771
      6          6           0       -0.184441   -0.314982    0.008055
      7          1           0        2.247954    2.051954    0.009385
      8          1           0        3.679923    0.040992   -0.015970
      9          1           0        2.636130   -2.210595   -0.023536
     10          1           0        0.166983   -2.412639   -0.007107
     11          6           0       -1.664557   -0.572985    0.013595
     12          8           0       -2.120892   -1.676770    0.061446
     13          8           0       -2.464185    0.491705   -0.054248
     14          1           0       -1.889418    1.293974   -0.112744
     15          7           0       -0.425133    2.146299    0.032021
     16          1           0       -0.236390    2.705717    0.860219
     17          1           0       -0.244662    2.723336   -0.785845
 ---------------------------------------------------------------------
                    Distance matrix (angstroms):
                    1          2          3          4          5
     1  C    0.000000
     2  C    1.394463   0.000000
     3  C    2.420621   1.387909   0.000000
     4  C    2.792276   2.401638   1.389950   0.000000
     5  C    2.411695   2.765859   2.401153   1.385030   0.000000
     6  C    1.403566   2.417432   2.799487   2.423378   1.397013
     7  H    2.140637   1.081974   2.144393   3.383448   3.847825
     8  H    3.397496   2.143489   1.081324   2.149685   3.383773
     9  H    3.872854   3.383807   2.148230   1.080596   2.139408
    10  H    3.378550   3.843848   3.385189   2.148408   1.078156
    11  C    2.576582   3.832070   4.298616   3.759305   2.462683
    12  O    3.652070   4.785099   4.993111   4.155531   2.770635
    13  O    2.910879   4.301814   5.098212   4.836907   3.657536
    14  H    2.325827   3.696690   4.694502   4.705022   3.728059
    15  N    1.452277   2.471519   3.748922   4.244542   3.744277
    16  H    2.046933   2.748724   4.060233   4.699451   4.327572
    17  H    2.045668   2.745950   4.059235   4.701003   4.330602
                    6          7          8          9         10
     6  C    0.000000
     7  H    3.393955   0.000000
     8  H    3.880799   2.468835   0.000000
     9  H    3.398524   4.280314   2.481775   0.000000
    10  H    2.126944   4.925780   4.284989   2.477455   0.000000
    11  C    1.502445   4.711482   5.379712   4.602071   2.596014
    12  O    2.367944   5.743945   6.050301   4.787635   2.404282
    13  O    2.419062   4.964139   6.160736   5.772052   3.919244
    14  H    2.347398   4.208003   5.709368   5.724556   4.240156
    15  N    2.473139   2.674847   4.613686   5.325124   4.597396
    16  H    3.139029   2.706158   4.817257   5.762163   5.206969
    17  H    3.140905   2.701162   4.815604   5.764005   5.210962
                   11         12         13         14         15
    11  C    0.000000
    12  O    1.195354   0.000000
    13  O    1.333257   2.198526   0.000000
    14  H    1.884691   2.984835   0.988643   0.000000
    15  N    2.988481   4.182382   2.627329   1.700454   0.000000
    16  H    3.675095   4.836897   3.271264   2.381633   1.017095
    17  H    3.677083   4.857888   3.231361   2.280650   1.017078
                   16         17
    16  H    0.000000
    17  H    1.646179   0.000000
 Stoichiometry    C7H7NO2
 Framework group  C1[X(C7H7NO2)]
 Deg. of freedom    45
 Full point group                 C1      NOp   1
 Largest Abelian subgroup         C1      NOp   1
 Largest concise Abelian subgroup C1      NOp   1
                         Standard orientation:                         
 ---------------------------------------------------------------------
 Center     Atomic      Atomic             Coordinates (Angstroms)
 Number     Number       Type             X           Y           Z
 ---------------------------------------------------------------------
      1          6           0        0.448524    0.942489    0.011957
      2          6           0        1.842295    0.985919    0.005454
      3          6           0        2.592003   -0.181989   -0.009397
      4          6           0        1.947237   -1.413326   -0.016334
      5          6           0        0.563241   -1.466380   -0.009506
      6          6           0       -0.204983   -0.299625    0.003163
      7          1           0        2.338691    1.947275    0.012700
      8          1           0        3.672082   -0.130341   -0.014212
      9          1           0        2.520965   -2.328967   -0.027620
     10          1           0        0.044924   -2.411755   -0.015391
     11          6           0       -1.695824   -0.485975    0.005928
     12          8           0       -2.204922   -1.566557    0.051001
     13          8           0       -2.443080    0.616152   -0.061155
     14          1           0       -1.830207    1.389880   -0.117255
     15          7           0       -0.326772    2.170352    0.031376
     16          1           0       -0.112634    2.718527    0.860912
     17          1           0       -0.117353    2.739487   -0.785126
 ---------------------------------------------------------------------
 Rotational constants (GHZ):           2.2858308           1.2235335           0.8007552
 Standard basis: 6-311+G(2d,p) (5D, 7F)
 There are   332 symmetry adapted cartesian basis functions of A   symmetry.
 There are   312 symmetry adapted basis functions of A   symmetry.
   312 basis functions,   476 primitive gaussians,   332 cartesian basis functions
    36 alpha electrons       36 beta electrons
       nuclear repulsion energy       502.2115249158 Hartrees.
 NAtoms=   17 NActive=   17 NUniq=   17 SFac= 1.00D+00 NAtFMM=   60 NAOKFM=F Big=F
 Integral buffers will be    131072 words long.
 Raffenetti 2 integral format.
 Two-electron integral symmetry is turned on.
 One-electron integrals computed using PRISM.
 NBasis=   312 RedAO= T EigKep=  1.54D-06  NBF=   312
 NBsUse=   312 1.00D-06 EigRej= -1.00D+00 NBFU=   312
 Initial guess from the checkpoint file:  "acid-2-new.chk"
 B after Tr=     0.000000    0.000000    0.000000
         Rot=    0.999628   -0.000271    0.000303   -0.027276 Ang=  -3.13 deg.
 ExpMin= 4.38D-02 ExpMax= 8.59D+03 ExpMxC= 1.30D+03 IAcc=3 IRadAn=         5 AccDes= 0.00D+00
 Harris functional with IExCor=  402 and IRadAn=       5 diagonalized for initial guess.
 HarFok:  IExCor=  402 AccDes= 0.00D+00 IRadAn=         5 IDoV= 1 UseB2=F ITyADJ=14
 ICtDFT=  3500011 ScaDFX=  1.000000  1.000000  1.000000  1.000000
 FoFCou: FMM=F IPFlag=           0 FMFlag=      100000 FMFlg1=           0
         NFxFlg=           0 DoJE=T BraDBF=F KetDBF=T FulRan=T
         wScrn=  0.000000 ICntrl=       500 IOpCl=  0 I1Cent=   200000004 NGrid=           0
         NMat0=    1 NMatS0=      1 NMatT0=    0 NMatD0=    1 NMtDS0=    0 NMtDT0=    0
 Petite list used in FoFCou.
 Requested convergence on RMS density matrix=1.00D-08 within  32 cycles.
 Requested convergence on MAX density matrix=1.00D-06.
 Requested convergence on             energy=1.00D-06.
 No special actions if energy rises.
 SCF Done:  E(RB3LYP) =  -476.328179037     A.U. after   13 cycles
            NFock= 13  Conv=0.47D-08     -V/T= 2.0036
 QCSCF skips out because SCF is already converged.
 Calling FoFJK, ICntrl=      2127 FMM=F ISym2X=0 I1Cent= 0 IOpClX= 0 NMat=1 NMatS=1 NMatT=0.
 ***** Axes restored to original set *****
 -------------------------------------------------------------------
 Center     Atomic                   Forces (Hartrees/Bohr)
 Number     Number              X              Y              Z
 -------------------------------------------------------------------
      1        6           0.003040847   -0.001582044    0.000157563
      2        6          -0.000997075   -0.000458420    0.000073489
      3        6          -0.001089192    0.000519317    0.000092295
      4        6          -0.000810358   -0.000311061   -0.000069050
      5        6           0.002747640    0.001842251   -0.000096463
      6        6           0.004138511    0.000999818    0.000476638
      7        1           0.000650285    0.001728734    0.000044292
      8        1           0.001388953    0.000375585   -0.000038480
      9        1           0.001136790   -0.001344081   -0.000015815
     10        1          -0.001810268   -0.001941919    0.000118671
     11        6          -0.002356936    0.011803617   -0.002198923
     12        8          -0.003798656   -0.019746871    0.001891991
     13        8          -0.003127065    0.001184424   -0.002505181
     14        1          -0.000374958    0.006278695    0.004746805
     15        7           0.002007700   -0.000199498   -0.002995419
     16        1          -0.001536576    0.000042885   -0.001582505
     17        1           0.000790357    0.000808569    0.001900091
 -------------------------------------------------------------------
 Cartesian Forces:  Max     0.019746871 RMS     0.003757804

 GradGradGradGradGradGradGradGradGradGradGradGradGradGradGradGradGradGrad
 Berny optimization.
 Using GEDIIS/GDIIS optimizer.
 FormGI is forming the generalized inverse of G from B-inverse, IUseBI=4.
 Internal  Forces:  Max     0.019759893 RMS     0.003420875
 Search for a local minimum.
 Step number   3 out of a maximum of   86
 All quantities printed in internal units (Hartrees-Bohrs-Radians)
 Mixed Optimization -- RFO/linear search
 Update second derivatives using D2CorX and points    1    2    3
 DE= -6.25D-03 DEPred=-6.45D-03 R= 9.70D-01
 TightC=F SS=  1.41D+00  RLast= 2.15D-01 DXNew= 5.0454D-01 6.4507D-01
 Trust test= 9.70D-01 RLast= 2.15D-01 DXMaxT set to 5.05D-01
 ITU=  1  0  0
 Use linear search instead of GDIIS.
     Eigenvalues ---    0.00253   0.00586   0.00770   0.01356   0.01550
     Eigenvalues ---    0.01730   0.02152   0.02153   0.02154   0.02155
     Eigenvalues ---    0.02156   0.02156   0.02176   0.05232   0.15151
     Eigenvalues ---    0.16000   0.16000   0.16000   0.16000   0.16008
     Eigenvalues ---    0.16218   0.21992   0.22442   0.23654   0.24574
     Eigenvalues ---    0.25000   0.25527   0.29154   0.33703   0.33717
     Eigenvalues ---    0.33719   0.34115   0.35544   0.39301   0.41478
     Eigenvalues ---    0.42449   0.45070   0.46403   0.46449   0.46543
     Eigenvalues ---    0.47519   0.47701   0.52954   0.59822   0.85748
 RFO step:  Lambda=-3.41109433D-03 EMin= 2.52843455D-03
 Quartic linear search produced a step of -0.14339.
 Iteration  1 RMS(Cart)=  0.11761366 RMS(Int)=  0.01339828
 Iteration  2 RMS(Cart)=  0.02640524 RMS(Int)=  0.00067591
 Iteration  3 RMS(Cart)=  0.00076044 RMS(Int)=  0.00046492
 Iteration  4 RMS(Cart)=  0.00000075 RMS(Int)=  0.00046492
 Variable       Old X    -DE/DX   Delta X   Delta X   Delta X     New X
                                 (Linear)    (Quad)   (Total)
    R1        2.63515  -0.00032   0.00008  -0.00094  -0.00086   2.63430
    R2        2.65236   0.00192   0.00334  -0.00715  -0.00381   2.64855
    R3        2.74441  -0.00022   0.00207  -0.01095  -0.00888   2.73553
    R4        2.62277  -0.00003  -0.00014  -0.00074  -0.00086   2.62190
    R5        2.04463   0.00184   0.00120  -0.00321  -0.00201   2.04262
    R6        2.62663   0.00098  -0.00056   0.00266   0.00211   2.62873
    R7        2.04341   0.00142   0.00119  -0.00428  -0.00308   2.04032
    R8        2.61733   0.00063   0.00025  -0.00138  -0.00115   2.61618
    R9        2.04203   0.00175   0.00124  -0.00383  -0.00259   2.03944
   R10        2.63997   0.00164  -0.00058   0.00513   0.00454   2.64451
   R11        2.03742   0.00254   0.00160  -0.00377  -0.00217   2.03525
   R12        2.83921   0.00960   0.00479   0.00132   0.00612   2.84533
   R13        2.25889   0.01976   0.00436  -0.00539  -0.00103   2.25787
   R14        2.51949   0.00795   0.00594  -0.02233  -0.01639   2.50310
   R15        1.86826   0.00460  -0.00193   0.01755   0.01562   1.88388
   R16        1.92203  -0.00155  -0.00110   0.00412   0.00302   1.92505
   R17        1.92200  -0.00093  -0.00105   0.00495   0.00390   1.92590
    A1        2.08622   0.00148  -0.00046   0.00535   0.00479   2.09102
    A2        2.10286  -0.00212  -0.00896   0.02750   0.01842   2.12128
    A3        2.09410   0.00065   0.00942  -0.03278  -0.02345   2.07064
    A4        2.11034   0.00008   0.00056  -0.00048   0.00007   2.11041
    A5        2.07853  -0.00017   0.00037  -0.00381  -0.00346   2.07507
    A6        2.09431   0.00009  -0.00093   0.00430   0.00334   2.09765
    A7        2.08857  -0.00005  -0.00002  -0.00105  -0.00108   2.08748
    A8        2.09371  -0.00022   0.00023  -0.00194  -0.00172   2.09199
    A9        2.10091   0.00027  -0.00021   0.00300   0.00278   2.10369
   A10        2.09144  -0.00041   0.00005  -0.00201  -0.00198   2.08946
   A11        2.09950   0.00004  -0.00026   0.00160   0.00135   2.10085
   A12        2.09224   0.00038   0.00021   0.00041   0.00063   2.09287
   A13        2.11478   0.00140   0.00094   0.00364   0.00453   2.11930
   A14        2.11058   0.00009  -0.00179   0.01016   0.00837   2.11894
   A15        2.05783  -0.00149   0.00085  -0.01378  -0.01294   2.04489
   A16        2.07502  -0.00249  -0.00107  -0.00541  -0.00649   2.06853
   A17        2.17945   0.00570   0.00835  -0.00501   0.00335   2.18280
   A18        2.02872  -0.00321  -0.00728   0.01041   0.00314   2.03186
   A19        2.13507  -0.00714  -0.00573   0.00357  -0.00432   2.13074
   A20        2.04151   0.00506   0.01124  -0.03073  -0.02169   2.01982
   A21        2.10652   0.00211  -0.00550   0.02862   0.02087   2.12739
   A22        1.87796   0.00707  -0.00625   0.05371   0.04746   1.92542
   A23        1.93284   0.00218  -0.00174   0.01957   0.01778   1.95063
   A24        1.93099   0.00036  -0.00201   0.01180   0.00974   1.94073
   A25        1.88579  -0.00153   0.00018  -0.01111  -0.01101   1.87478
    D1       -0.00016   0.00052   0.00042   0.01053   0.01094   0.01078
    D2       -3.14118   0.00004  -0.00008   0.00033   0.00020  -3.14097
    D3        3.13850   0.00143   0.00131   0.03619   0.03787  -3.10682
    D4       -0.00251   0.00095   0.00081   0.02599   0.02713   0.02462
    D5        0.00201  -0.00096  -0.00082  -0.02089  -0.02170  -0.01969
    D6       -3.13929  -0.00098  -0.00108  -0.01969  -0.02081   3.12308
    D7       -3.13667  -0.00186  -0.00173  -0.04653  -0.04792   3.09860
    D8        0.00521  -0.00188  -0.00199  -0.04533  -0.04703  -0.04181
    D9       -1.04698  -0.00131  -0.00108  -0.06101  -0.06208  -1.10906
   D10        1.04355  -0.00157  -0.00323  -0.05450  -0.05765   0.98589
   D11        2.09167  -0.00039  -0.00017  -0.03517  -0.03542   2.05626
   D12       -2.10099  -0.00065  -0.00232  -0.02865  -0.03099  -2.13197
   D13       -0.00132   0.00015   0.00014   0.00449   0.00472   0.00340
   D14       -3.14154  -0.00020  -0.00020  -0.00377  -0.00394   3.13771
   D15        3.13969   0.00063   0.00064   0.01478   0.01560  -3.12790
   D16       -0.00053   0.00029   0.00030   0.00652   0.00693   0.00641
   D17        0.00093  -0.00037  -0.00029  -0.00884  -0.00915  -0.00822
   D18       -3.14130  -0.00018  -0.00013  -0.00481  -0.00497   3.13692
   D19        3.14114  -0.00002   0.00005  -0.00056  -0.00043   3.14070
   D20       -0.00109   0.00017   0.00021   0.00348   0.00375   0.00266
   D21        0.00096  -0.00008  -0.00013  -0.00191  -0.00210  -0.00114
   D22        3.14086   0.00044   0.00040   0.00968   0.01015  -3.13217
   D23       -3.14000  -0.00027  -0.00029  -0.00593  -0.00626   3.13692
   D24       -0.00010   0.00025   0.00024   0.00566   0.00599   0.00589
   D25       -0.00243   0.00075   0.00068   0.01680   0.01751   0.01508
   D26        3.13890   0.00077   0.00090   0.01570   0.01670  -3.12759
   D27        3.14081   0.00024   0.00016   0.00553   0.00574  -3.13663
   D28       -0.00104   0.00026   0.00039   0.00442   0.00492   0.00388
   D29       -3.08920  -0.00175  -0.00565  -0.12854  -0.13454   3.05944
   D30        0.06634  -0.00372  -0.00788  -0.24884  -0.25631  -0.18997
   D31        0.05268  -0.00177  -0.00589  -0.12736  -0.13367  -0.08099
   D32       -3.07497  -0.00375  -0.00813  -0.24766  -0.25543   2.95279
   D33        0.01593  -0.00366  -0.00527  -0.08838  -0.09310  -0.07717
   D34       -3.11195  -0.00553  -0.00746  -0.20639  -0.21440   2.95683
         Item               Value     Threshold  Converged?
 Maximum Force            0.019760     0.000450     NO 
 RMS     Force            0.003421     0.000300     NO 
 Maximum Displacement     0.884855     0.001800     NO 
 RMS     Displacement     0.137061     0.001200     NO 
 Predicted change in Energy=-3.338446D-03
 GradGradGradGradGradGradGradGradGradGradGradGradGradGradGradGradGradGrad

                          Input orientation:                          
 ---------------------------------------------------------------------
 Center     Atomic      Atomic             Coordinates (Angstroms)
 Number     Number       Type             X           Y           Z
 ---------------------------------------------------------------------
      1          6           0        0.416944    0.957441   -0.038987
      2          6           0        1.806063    1.065726    0.004439
      3          6           0        2.608803   -0.065603    0.031384
      4          6           0        2.020771   -1.326100    0.010772
      5          6           0        0.641497   -1.439423   -0.026491
      6          6           0       -0.183337   -0.309048   -0.042747
      7          1           0        2.253375    2.049731    0.007333
      8          1           0        3.683090    0.038075    0.061297
      9          1           0        2.633510   -2.214366    0.026972
     10          1           0        0.157428   -2.401482   -0.034503
     11          6           0       -1.667305   -0.562897   -0.064613
     12          8           0       -2.121465   -1.664730   -0.149909
     13          8           0       -2.434949    0.496177    0.144226
     14          1           0       -1.874914    1.293391    0.355501
     15          7           0       -0.431954    2.127809   -0.110357
     16          1           0       -0.341177    2.711418    0.719641
     17          1           0       -0.196496    2.705185   -0.916487
 ---------------------------------------------------------------------
                    Distance matrix (angstroms):
                    1          2          3          4          5
     1  C    0.000000
     2  C    1.394010   0.000000
     3  C    2.419880   1.387452   0.000000
     4  C    2.790931   2.401451   1.391064   0.000000
     5  C    2.407392   2.762778   2.400214   1.384423   0.000000
     6  C    1.401551   2.418665   2.803713   2.428034   1.399415
     7  H    2.137223   1.080909   2.145121   3.383837   3.843630
     8  H    3.394555   2.140684   1.079692   2.151007   3.382602
     9  H    3.870127   3.382925   2.148910   1.079226   2.138109
    10  H    3.368936   3.839406   3.386726   2.151870   1.077007
    11  C    2.579956   3.836856   4.305998   3.766970   2.469882
    12  O    3.651247   4.785884   4.996551   4.159160   2.774880
    13  O    2.894758   4.281368   5.076196   4.815801   3.638710
    14  H    2.349701   3.704682   4.696343   4.707115   3.734503
[...]
   xx         0.823312D+02      0.122002D+02      0.135746D+02
   yx        -0.289307D+02     -0.428709D+01     -0.477003D+01
   yy         0.913443D+02      0.135358D+02      0.150606D+02
   zx         0.785252D+01      0.116362D+01      0.129471D+01
   zy        -0.176570D+00     -0.261649D-01     -0.291124D-01
   zz         0.117145D+03      0.173591D+02      0.193146D+02

 ----------------------------------------------------------------------
 1\1\GINC-HRG05\Freq\RB3LYP\6-311+G(2d,p)\C7H7N1O2\UNKNOWN\25-Jul-2023\
 0\\#N Geom=AllCheck Guess=TCheck SCRF=Check GenChk RB3LYP/6-311+G(2d,p
 ) Freq\\Title Card Required\\0,1\C,0.4312383368,0.9723259798,0.0064994
 725\C,1.8177931163,1.0700346375,-0.101393594\C,2.6096600273,-0.0698310
 043,-0.1270988429\C,2.0231046282,-1.3271939322,-0.0212825998\C,0.64484
 51574,-1.4304878146,0.0820772837\C,-0.1711460067,-0.2959449517,0.07415
 5874\H,2.277208789,2.0513572953,-0.1528689597\H,3.6851849008,0.0268801
 402,-0.2153356329\H,2.6360946724,-2.2196901582,-0.027565773\H,0.159511
 3026,-2.3951077864,0.151689662\C,-1.6597398604,-0.5398164119,0.0789249
 947\O,-2.1328236665,-1.6075802505,0.3742066752\O,-2.4490026357,0.47917
 63428,-0.3068042116\H,-1.8957504977,1.2737459393,-0.4844539662\N,-0.38
 13012094,2.152759253,0.012755011\H,-0.7600106916,2.3542749377,0.934283
 2134\H,0.1350176371,2.9664017844,-0.3003166064\\Version=EM64L-G16RevB.
 01\State=1-A\HF=-476.3299712\RMSD=1.201e-09\RMSF=7.988e-06\ZeroPoint=0
 .1324342\Thermal=0.1406845\Dipole=1.8737922,1.6344369,0.0422266\Dipole
 Deriv=0.3977403,-0.4140316,-0.0123531,-0.2981846,0.6715045,0.0426671,-
 0.0689812,0.0887652,-0.0006945,-0.249622,0.2777325,-0.0024309,0.100640
 8,-0.0402971,-0.0006165,0.0326858,-0.0821,-0.1455886,0.1125408,-0.0133
 83,-0.0225377,0.0093055,0.1430468,-0.0143035,-0.0061045,-0.0144171,-0.
 1051531,-0.1260532,-0.1772938,0.0072256,-0.1117083,-0.0324781,0.002560
 8,-0.0075994,0.0025583,-0.1384233,0.112712,0.0945757,-0.0264407,-0.108
 1808,0.0276093,-0.0018347,0.0211969,-0.0208731,-0.0768058,-0.5173688,-
 0.0760974,0.0116027,0.0740258,-0.2204077,0.0175586,-0.0069417,0.077903
 9,-0.0344855,0.0435947,-0.0370994,0.0057352,-0.0544723,-0.0908122,0.00
 97546,0.0052771,0.0000042,0.1356909,-0.0830089,-0.008904,0.0171117,-0.
 0164278,0.0722903,0.002829,0.0162067,0.0135439,0.1281458,0.011152,0.06
 63065,0.0048668,0.0752094,-0.0302312,0.0022712,0.006187,0.0039696,0.13
 8048,0.1066951,-0.0342904,0.0024802,-0.0153004,0.0255077,0.0032444,0.0
 00212,0.0081489,0.1240111,1.7873479,0.0523808,0.0505921,0.1023171,1.58
 72945,-0.4406355,0.0584386,-0.4112084,0.4467202,-0.9105011,-0.3653338,
 0.0966518,-0.3708485,-1.0239786,0.202168,0.0556844,0.172789,-0.4282141
 ,-0.9088173,0.3061846,-0.1560355,0.1984234,-1.0380148,0.186897,-0.1100
 757,0.232652,-0.4212649,0.492982,0.1484345,0.0413973,0.1703969,0.43422
 48,0.0184385,0.0580318,0.0030677,0.2591182,-0.6689066,0.3516976,-0.088
 7986,0.2190916,-0.7269972,-0.0387031,-0.1499372,-0.0257082,-0.2257202,
 0.2855602,-0.0703704,0.0035637,0.0437738,0.0953116,0.0264405,0.0658184
 ,-0.0164538,0.1208283,0.113953,-0.1005082,0.0673692,-0.0180614,0.14642
 74,-0.0187362,0.0299009,-0.0326422,0.2237877\Polar=122.0369957,-0.1171
 72,111.4003692,-3.1962582,-3.617595,57.3832028\Quadrupole=-5.1617122,6
 .1219845,-0.9602723,-4.3538243,-0.5174522,1.6805242\PG=C01 [X(C7H7N1O2
 )]\NImag=0\\0.65388212,0.00826236,0.63748356,-0.05049605,-0.01384271,0
 .18401088,-0.29960108,0.01352737,0.02038310,0.65816852,-0.06189349,-0.
 12830319,0.00693552,0.01426522,0.73139886,0.02176579,0.00276434,-0.069
 87544,-0.04099999,-0.01398372,0.12979178,-0.03594544,0.02453677,0.0022
 4638,-0.19692026,0.12879315,0.00493329,0.73380877,0.07782317,0.0420513
 4,-0.00531582,0.06340390,-0.26777191,0.00088350,0.00382019,0.65678962,
 0.00020515,-0.00304407,0.00340345,0.00732225,-0.00253918,-0.06114577,-
 0.04810783,-0.02252753,0.14158824,-0.04901623,-0.03319202,0.00317079,0
 .06352075,-0.01228197,-0.00337224,-0.16459833,-0.04098594,0.01137950,0
 .68360828,-0.03606796,-0.01984711,0.00225881,0.03319261,-0.05814035,-0
 .00076496,-0.10576684,-0.29142921,0.02016225,-0.04472519,0.71145590,0.
 00448647,0.00277469,-0.00560931,-0.00479933,0.00324658,0.00859460,0.01
 288673,0.01537500,-0.06469345,-0.03945381,-0.02353216,0.13472991,0.067
 56218,0.03425492,-0.00446272,-0.05484956,0.02421903,0.00327575,-0.0193
 4500,-0.08233138,0.00411819,-0.33524139,0.01807948,0.01957434,0.693887
 29,-0.01242651,-0.05592906,0.00326970,0.02476804,-0.01256788,-0.001009
 06,-0.03614812,0.02459433,0.00244559,-0.04664208,-0.13309164,0.0048343
 3,0.04247893,0.70380703,-0.00340624,-0.00183173,0.00455012,0.00178799,
 -0.00104645,-0.00502042,0.00333342,0.00422816,0.00699412,0.02184160,0.
 00156002,-0.06569653,-0.03623626,-0.02685833,0.14627216,-0.16513809,-0
 .08955873,0.00579344,-0.01789026,-0.02995331,0.00107078,-0.00096774,0.
 00655204,-0.00032012,-0.03761420,0.02125487,0.00142609,-0.17922836,0.1
 1067641,0.00374057,0.59702906,-0.03396053,-0.24656179,0.00765398,-0.07
 385150,0.02114262,0.00394413,0.00491927,-0.06256213,0.00106352,0.06551
 889,0.03847108,-0.00399052,0.05707396,-0.25060544,0.00520368,-0.014498
 62,0.67406709,0.00273710,0.00948057,-0.06872529,0.00493765,-0.00053681
 ,0.00964814,0.00053028,0.00306446,-0.00481382,-0.00117197,-0.00276348,
 0.00791745,0.00400923,0.00223371,-0.06499330,-0.00702122,-0.03079408,0
 .14489752,-0.00976167,-0.02927472,0.00154711,-0.10880226,-0.10448583,0
 .00754848,0.01212440,0.01761452,-0.00096754,-0.00152466,0.00326370,0.0
 0052444,-0.00092814,0.00085642,-0.00005077,-0.00569981,0.00085413,0.00
 051524,0.11188120,0.00166765,-0.00252150,0.00000719,-0.10532322,-0.279
 31117,0.01188012,-0.01333121,-0.01946328,0.00151819,0.00429521,-0.0022
 1993,-0.00012619,0.00073903,0.00027397,-0.00009699,-0.00051279,0.00179
 671,0.00007694,0.11243780,0.29845771,-0.00053712,0.00343639,0.00376784
 ,0.00882580,0.01078831,-0.03409946,-0.00059721,0.00000985,0.00246939,0
 .00000085,-0.00023170,0.00686379,0.00055241,-0.00036822,-0.00091331,0.
 00110370,0.00019645,0.00542601,-0.00831679,-0.01316197,0.02423881,0.00
 080615,0.00290318,0.00060849,-0.01372210,-0.00370786,0.00134066,-0.331
 12163,-0.02404029,0.02400947,-0.00874667,0.00116107,0.00089992,0.00083
 208,-0.00281521,0.00056272,0.00069530,0.00014949,-0.00012341,0.0008227
 0,0.00019008,-0.00044026,0.35132030,0.00231330,-0.00372532,0.00013203,
 0.02700136,0.00656002,-0.00194724,-0.02435071,-0.06286759,0.00301776,-
 0.02922599,0.00333215,0.00236609,-0.00217191,-0.00511806,0.00072694,0.
 00033557,-0.00128211,-0.00000260,-0.00050482,0.00097439,-0.00006979,0.
 02605941,0.06101604,0.00028170,0.00001934,0.00754557,0.00042286,-0.000
 16576,0.00358583,0.02392702,0.00283923,-0.03975964,0.00261570,0.000224
 76,0.00376236,0.00032952,0.00102258,0.00704517,-0.00012263,-0.00001556
 ,-0.00100383,-0.00036225,-0.00008295,-0.00390160,-0.02662387,-0.003679
 44,0.02761055,-0.00093509,-0.00110037,0.00007036,-0.00021191,-0.002860
 65,0.00067244,0.01185393,-0.01265519,-0.00010950,-0.14819513,0.1292096
 8,0.00281680,-0.01361912,0.02760300,0.00009796,-0.00499122,-0.00179863
 ,0.00099152,0.00037845,-0.00069918,-0.00000792,0.00073780,0.00057601,-
 0.00037387,0.15413523,-0.00099696,-0.00007826,0.00005975,-0.00360114,-
 0.00330688,0.00078326,0.01807954,-0.01868321,-0.00043675,0.12918672,-0
 .24818539,-0.00014971,-0.00298489,0.00624610,0.00011106,-0.00110376,0.
 00143931,0.00034592,0.00088001,-0.00097920,-0.00002707,-0.00024090,0.0
 0101341,-0.00020261,-0.13942787,0.26153516,0.00010971,0.00022162,-0.00
 036598,0.00113186,0.00038378,0.00672639,-0.00158705,0.00235807,0.00239
 423,0.00265381,-0.00034121,-0.03555048,0.00140179,-0.00217199,0.002637
 66,0.00061482,0.00044885,0.00710167,-0.00011728,0.00012285,0.00033482,
 -0.00030327,-0.00028150,-0.00366304,-0.00356310,-0.00013735,0.02532880
 ,-0.00214155,0.00234904,0.00022270,-0.00088745,0.00094381,-0.00008345,
 -0.00530306,0.00028130,0.00091604,-0.00785833,-0.02761312,0.00194942,-
 0.11303466,-0.11205775,0.00832801,0.01243529,0.01575556,-0.00079477,0.
 00003362,-0.00007033,-0.00003427,-0.00044275,-0.00127132,0.00009132,0.
 00113931,0.00033134,-0.00041834,0.11663520,0.00374937,-0.00154685,0.00
 028422,0.00056468,0.00034415,-0.00006880,0.00043281,0.00138667,0.00019
 523,0.00123475,0.00413236,-0.00001648,-0.10950169,-0.28444256,0.016653
 58,-0.01105772,-0.02082488,0.00158464,-0.00007152,-0.00003295,-0.00001
 348,0.00023069,0.00011227,-0.00002973,-0.00034682,0.00065531,-0.000171
 05,0.11910918,0.30126043,0.00078763,0.00059747,0.00604494,-0.00052045,
 0.00005628,-0.00082476,0.00080703,-0.00044432,0.00713814,0.00186123,0.
 00208199,0.00453362,0.00766879,0.01705229,-0.04158844,-0.00075215,-0.0
 0093937,0.00476670,-0.00006402,-0.00001472,-0.00067228,0.00000703,0.00
 003085,-0.00020686,-0.00036457,-0.00023040,-0.00407281,-0.00977236,-0.
 01862446,0.02875206,-0.00084705,-0.02802684,0.00198239,0.00208815,0.00
 081654,0.00080586,0.00142888,-0.00141308,0.00022962,0.00494519,0.00431
 777,-0.00051992,-0.03456537,0.01506068,-0.00111686,-0.15569969,-0.0023
 0795,0.00017053,0.00132058,0.00104059,-0.00029580,0.00002308,-0.000043
 53,-0.00007175,0.00063621,-0.00033267,0.00001868,0.00019772,-0.0024159
 7,0.00051265,0.58150397,-0.03382428,0.00807873,0.00089212,-0.00241134,
 -0.00557549,0.00045744,-0.00073666,-0.00405892,-0.00028456,0.00721314,
 -0.00569902,-0.00012989,0.02090396,0.01636376,-0.00115377,0.00405445,-
 0.10032824,-0.00009549,-0.00143476,-0.00032516,0.00054379,-0.00002548,
 -0.00032041,-0.00000607,0.00180174,0.00015875,-0.00016765,0.00331038,-
 0.00318571,0.00007976,0.14757658,0.86515670,0.00583169,-0.00300333,0.0
 0002698,-0.00000112,0.00118074,0.00748791,0.00046296,-0.00004719,-0.00
 126980,-0.00002226,0.00086385,0.00779468,0.00186866,-0.00147401,0.0017
 3001,-0.00719659,-0.00123711,-0.07900967,0.00026342,0.00024009,0.00051
 749,-0.00007397,0.00004407,-0.00111203,0.00000329,0.00003280,0.0004372
 9,-0.00116167,0.00066202,-0.00395632,-0.02386130,-0.18113555,0.2609248
 6,-0.00796522,0.00938123,0.00019496,-0.00168670,-0.00220598,-0.0004843
 6,-0.00070967,-0.00095673,-0.00005406,0.00043620,-0.00136493,-0.000409
 05,-0.00137744,-0.00307444,0.00109877,-0.02776059,-0.04763561,0.010646
 51,-0.00097172,-0.00033256,0.00008144,-0.00013962,-0.00008136,0.000108
 69,-0.00024430,0.00015613,0.00007133,-0.00193639,-0.00127841,0.0004320
 7,-0.21290271,-0.22249117,0.05928980,0.21954065,-0.00021581,0.00257637
 ,-0.00036904,-0.00111801,-0.00010087,-0.00045814,0.00056198,0.00057800
 ,0.00016117,-0.00231213,0.00141843,-0.00020194,0.00698138,-0.00732731,
 0.00023233,-0.03382929,-0.01723885,0.00985061,-0.00045317,-0.00000717,
 -0.00010096,0.00000219,0.00029247,0.00001864,-0.00045288,0.00002931,-0
 .00000292,-0.00116767,0.00283516,0.00003895,-0.22417125,-0.55947451,0.
 13147111,0.24730077,0.67299969,-0.00048557,0.00008300,0.00239245,0.000
 57984,0.00019362,-0.00168048,-0.00028118,0.00024640,0.00009993,0.00004
 199,-0.00021370,-0.00066023,-0.00130133,0.00124701,0.00051874,0.008035
 71,0.00892039,0.01871301,0.00009623,-0.00003358,-0.00031930,0.00004508
 ,-0.00002072,0.00015842,0.00006079,-0.00001988,0.00001075,-0.00000902,
 -0.00034638,-0.00034842,0.05941871,0.13069631,-0.11235005,-0.06490841,
 -0.17996798,0.08367566,0.00101495,0.00398125,0.00030087,0.00011896,-0.
 00020669,0.00018266,-0.00026044,0.00078217,-0.00002607,-0.00179966,0.0
 0145482,0.00081392,-0.00453546,-0.00619073,0.00019398,-0.02899196,0.03
 259674,-0.01334524,-0.00017421,-0.00022294,-0.00007099,-0.00010374,-0.
 00007686,-0.00004246,-0.00085435,-0.00000930,0.00007101,0.00049255,0.0
 0008154,-0.00043122,-0.20282307,0.05332293,-0.02911164,0.03648718,0.00
 119037,0.00123923,0.39575174,0.00841752,-0.01502436,-0.00032588,-0.001
 44435,0.00249243,0.00058030,0.00085101,-0.00062801,0.00050030,0.000561
 10,0.00195031,-0.00063326,-0.00032818,0.00220450,-0.00016696,0.0124518
 9,0.00232091,0.00594852,0.00075208,0.00045472,-0.00034532,-0.00004549,
 0.00025064,0.00001666,0.00022994,0.00001535,-0.00005231,-0.00179212,0.
 00086373,0.00057217,0.09096088,-0.17012501,0.04300454,0.02166902,-0.09
 836610,0.03780824,0.08185064,0.54896726,-0.00093166,0.00280787,-0.0004
 5323,-0.00020004,-0.00049128,-0.00088658,-0.00004158,-0.00006572,0.000
 16344,-0.00004426,0.00041246,-0.00108904,-0.00160224,-0.00141701,0.002
 38176,-0.00456294,0.00839404,0.01447231,-0.00011579,-0.00010809,0.0000
 0656,-0.00002470,-0.00007317,0.00012013,-0.00025557,-0.00004635,-0.000
 26617,0.00084191,-0.00019547,0.00029176,-0.04366986,0.04049170,-0.0690
 9069,-0.00434907,0.03606578,0.00356884,0.01267746,-0.14366531,0.076918
 44,-0.01274250,0.00947493,-0.00280762,0.00157330,-0.00124042,-0.000803
 78,-0.00051948,0.00048110,-0.00022120,-0.00002709,-0.00095381,0.000056
 26,-0.00045399,-0.00098115,0.00061297,-0.00289465,0.00097307,-0.000355
 08,-0.00034358,-0.00014890,0.00017497,0.00013202,-0.00011634,0.0000454
 1,-0.00008176,-0.00005030,-0.00001926,0.00058228,-0.00032808,-0.000113
 74,0.03071462,0.01217469,-0.00031044,-0.00443389,0.01265559,-0.0052232
 5,-0.18334181,-0.18513221,0.04021824,0.16295326,-0.00280858,0.01158516
 ,0.00182664,0.00270046,-0.00271499,-0.00097701,-0.00056500,0.00116238,
 -0.00051177,-0.00074986,-0.00099712,0.00032075,-0.00053113,-0.00180816
 ,0.00041400,-0.00049495,0.00106902,-0.00091909,-0.00054222,-0.00019101
 ,0.00026424,0.00011840,-0.00016067,0.00004258,-0.00027307,-0.00002538,
 0.00002367,0.00028107,-0.00019955,-0.00006400,-0.00682737,-0.04258396,
 0.01053183,0.00233664,0.00318342,0.00101639,-0.15267622,-0.26839616,0.
 05986390,0.14974605,0.30675478,-0.00158952,0.00118236,0.00084977,0.000
 36137,-0.00016851,-0.00020494,-0.00000627,-0.00004451,-0.00003766,0.00
 014142,-0.00028534,0.00013024,0.00029837,0.00016801,-0.00037917,-0.000
 39314,-0.00123058,-0.00045524,-0.00003955,-0.00003179,0.00008970,0.000
 04031,-0.00002309,-0.00000043,0.00006706,-0.00000807,0.00004675,0.0000
 5355,-0.00007903,-0.00002269,0.00880118,0.01027331,-0.00821782,-0.0025
 3243,0.00358732,0.00575039,0.02988471,0.05933442,-0.03238353,-0.034001
 84,-0.07200572,0.04567769,-0.13298614,0.03999451,0.01381494,-0.0330761
 1,0.04389324,0.00495715,-0.00196868,-0.00839027,0.00303002,0.00175752,
 0.00514718,-0.00012925,-0.00504375,-0.00193394,-0.00099539,0.01949981,
 -0.00366138,-0.00224756,0.00250723,0.00104801,-0.00135813,-0.00102829,
 0.00138534,-0.00037253,0.00030188,0.00018801,-0.00029131,0.00013210,-0
 .00056080,-0.00006669,-0.01861389,0.01188228,-0.00655285,0.00433510,-0
 .00505966,0.00286688,-0.00774272,-0.02908341,0.00179517,0.00657704,0.0
 1293581,0.00160376,0.37437549,0.08669402,-0.19339263,0.01849443,0.0113
 5277,-0.00594210,-0.00165109,-0.00144886,0.00192226,-0.00032929,0.0014
 3243,-0.00147417,0.00007827,-0.00548176,-0.00165671,0.00078539,0.02024
 961,-0.03789318,0.00138136,-0.00122406,0.00232468,-0.00093464,0.000083
 87,-0.00006728,-0.00004091,0.00015985,0.00007613,-0.00016270,0.0012046
 6,-0.00100338,-0.00016273,0.00353099,0.00450304,-0.00053753,-0.0009721
 8,-0.00206102,0.00046808,-0.01539644,-0.00997940,-0.00269331,0.0050868
 5,-0.00430525,0.00224591,0.04494953,0.61448212,0.03007797,-0.00107744,
 -0.07065230,0.00084374,-0.00388612,0.00836220,0.00177742,-0.00086415,0
 .00759270,0.00100801,0.00078122,-0.00103624,0.00004852,0.00207591,0.00
 548970,-0.00258816,0.00272265,0.00404876,-0.00008217,-0.00022644,-0.00
 406720,0.00007665,-0.00022984,-0.00021275,-0.00008329,-0.00003636,-0.0
 0100188,-0.00027926,0.00029247,0.00022430,-0.00305421,0.00045139,-0.00
 415371,0.00075590,-0.00095109,0.00091205,0.00094753,-0.00153682,0.0056
 2498,0.00012209,0.00142276,-0.00888829,-0.23895230,-0.03496072,0.48243
 490,-0.01802874,0.01237002,0.01824240,0.00077848,0.00315952,-0.0006453
 2,-0.00165171,0.00027747,-0.00149356,0.00055634,-0.00089601,0.00010405
 ,-0.00044085,0.00060238,-0.00052553,-0.00095511,-0.00322124,0.00029935
 ,0.00000710,-0.00001813,0.00092362,-0.00011014,0.00021859,0.00008040,-
 0.00001480,0.00004017,0.00022522,0.00004679,-0.00001545,-0.00007378,0.
 00465735,-0.00333170,0.00154255,-0.00101760,0.00076435,-0.00055975,-0.
 00138911,0.00373230,0.00125923,-0.00021783,-0.00318188,-0.00573080,-0.
 06087830,0.01760113,0.11544009,0.08682571,0.01167948,-0.00635895,-0.02
 890441,-0.00036259,-0.00140703,-0.00039039,0.00019902,-0.00021582,0.00
 099054,0.00023194,-0.00037360,-0.00019088,0.00047051,-0.00009119,0.001
 38041,0.00020933,-0.00064607,0.00051673,0.00007311,0.00020454,-0.00027
 703,0.00006612,-0.00010625,0.00003407,-0.00004764,0.00001286,-0.000133
 62,0.00005257,-0.00005016,0.00001516,0.00180371,-0.00247833,-0.0006766
 8,-0.00040386,0.00054031,-0.00007907,-0.00084416,0.00170397,0.00074282
 ,-0.00084565,-0.00088759,-0.00266511,0.03203154,-0.07336777,-0.0618490
 0,-0.03211622,0.07583426,-0.00707867,0.00035326,0.00415714,-0.00058603
 ,0.00129874,0.00003343,-0.00074375,0.00029299,0.00019772,-0.00041983,-
 0.00034800,-0.00005315,0.00065269,-0.00037950,0.00020830,0.00003943,0.
 00034405,0.00069945,-0.00002164,-0.00006000,-0.00021547,-0.00009566,0.
 00011044,0.00005425,-0.00003617,0.00000568,-0.00009223,0.00006175,0.00
 001272,0.00006290,0.00163320,-0.00223802,0.00092645,-0.00006596,0.0011
 2946,-0.00062291,-0.00054765,0.00240732,0.00062276,-0.00126203,-0.0026
 6922,-0.00364254,0.15678491,-0.05671448,-0.35366428,-0.14821842,0.0610
 0033,0.36263588,0.01184341,0.02011711,-0.01081153,0.00139955,0.0027456
 8,-0.00016373,0.00009546,-0.00026298,0.00008966,-0.00020259,0.00030668
 ,-0.00022708,0.00038153,0.00022407,0.00073305,-0.00182777,0.00309433,0
 .00022183,-0.00086923,-0.00075910,-0.00000431,0.00004551,-0.00004673,0
 .00006674,-0.00003512,-0.00011414,0.00000137,-0.00009065,0.00017343,0.
 00008254,-0.00206399,0.00201524,-0.00097054,0.00034673,-0.00067675,0.0
 0038406,-0.00184886,-0.00365063,-0.00099430,0.00252405,0.00053187,0.00
 304183,-0.14814829,-0.16782240,0.09394146,-0.00816758,-0.01219723,-0.0
 0009616,0.14661785,-0.01841276,-0.02848613,0.00694347,-0.00266428,0.00
 320375,-0.00004270,0.00015365,-0.00080453,-0.00038141,0.00044099,0.000
 69732,-0.00002467,-0.00187025,-0.00085168,-0.00014134,0.00522500,-0.00
 236406,0.00062808,0.00125932,0.00056464,0.00029116,-0.00008926,0.00009
 629,0.00000517,0.00008207,0.00007663,0.00006345,0.00035341,-0.00030403
 ,-0.00004493,0.00043092,-0.00010623,0.00008036,-0.00004654,0.00012266,
 0.00000187,0.00036289,0.00129521,-0.00002284,-0.00079541,-0.00148493,-
 0.00024958,-0.14476600,-0.29216536,0.09787159,0.00401470,0.00768681,-0
 .00454579,0.15632156,0.31282364,-0.00175838,-0.00092161,-0.00106758,0.
 00051049,-0.00126575,-0.00049243,0.00046035,0.00001159,-0.00032120,-0.
 00023053,0.00013520,0.00006177,-0.00019571,-0.00067101,0.00076343,0.00
 113239,-0.00068454,0.00131014,-0.00035712,0.00009732,0.00047421,0.0000
 9483,-0.00010079,-0.00002210,0.00001377,-0.00004390,-0.00000576,0.0000
 8844,-0.00013998,-0.00012182,-0.00098312,0.00132517,-0.00068558,0.0001
 2388,-0.00050331,0.00018116,-0.00273610,-0.00344661,-0.00000174,0.0038
 8829,0.00142005,0.00168776,0.06611317,0.07473394,-0.07101295,0.0191302
 6,0.03048611,-0.01130771,-0.08529490,-0.10043189,0.08056039\\0.0000065
 8,0.00000780,0.00000918,-0.00000904,0.00000412,-0.00000143,0.00000075,
 -0.00001117,0.00000257,0.00000642,0.00000429,-0.00000296,-0.00000444,-
 0.00000269,-0.00000086,-0.00000005,0.00000039,0.00000467,0.00000068,-0
 .00000179,-0.00000212,0.00000075,-0.00000044,-0.00000074,0.00000069,-0
 .00000026,0.00000395,0.00000157,0.00000191,-0.00000087,0.00001233,-0.0
 0001100,0.,-0.00000600,-0.00000752,0.00000435,-0.00003242,-0.00001232,
 -0.00000641,0.00001463,0.00002172,-0.00000399,0.00000220,0.00001594,-0
 .00000418,0.00000586,-0.00000514,-0.00000018,-0.00000051,-0.00000384,-
 0.00000099\\\@


 QUANTUM MECHANICS IS BOHRING -- M.S. GORDON
 Job cpu time:       0 days  1 hours 46 minutes 49.1 seconds.
 Elapsed time:       0 days  0 hours 13 minutes 21.3 seconds.
 File lengths (MBytes):  RWF=    151 Int=      0 D2E=      0 Chk=     10 Scr=      1
 Normal termination of Gaussian 16 at Tue Jul 25 23:24:34 2023.
