 Entering Gaussian System, Link 0=g16
 Input=/Users/macprobignew/Library/CloudStorage/Dropbox/Data_NCI Project/IMF Lab/Complicated-molecules/three-NH3-molecules/NH3-3-molecules_1.gjf
 Output=/Users/macprobignew/Library/CloudStorage/Dropbox/Data_NCI Project/IMF Lab/Complicated-molecules/three-NH3-molecules/NH3-3-molecules_1.log
 Initial command:
 /Applications/g16/l1.exe "/Users/macprobignew/Library/CloudStorage/Dropbox/Data_NCI Project/IMF Lab/Complicated-molecules/three-NH3-molecules/Gau-56506.inp" -scrdir="/Users/macprobignew/Library/CloudStorage/Dropbox/Data_NCI Project/IMF Lab/Complicated-molecules/three-NH3-molecules/"
 Entering Link 1 = /Applications/g16/l1.exe PID=     56507.
  
 Copyright (c) 1988-2017, Gaussian, Inc.  All Rights Reserved.
  
 This is part of the Gaussian(R) 16 program.  It is based on
 the Gaussian(R) 09 system (copyright 2009, Gaussian, Inc.),
 the Gaussian(R) 03 system (copyright 2003, Gaussian, Inc.),
 the Gaussian(R) 98 system (copyright 1998, Gaussian, Inc.),
 the Gaussian(R) 94 system (copyright 1995, Gaussian, Inc.),
 the Gaussian 92(TM) system (copyright 1992, Gaussian, Inc.),
 the Gaussian 90(TM) system (copyright 1990, Gaussian, Inc.),
 the Gaussian 88(TM) system (copyright 1988, Gaussian, Inc.),
 the Gaussian 86(TM) system (copyright 1986, Carnegie Mellon
 University), and the Gaussian 82(TM) system (copyright 1983,
 Carnegie Mellon University). Gaussian is a federally registered
 trademark of Gaussian, Inc.
  
 This software contains proprietary and confidential information,
 including trade secrets, belonging to Gaussian, Inc.
  
 This software is provided under written license and may be
 used, copied, transmitted, or stored only in accord with that
 written license.
  
 The following legend is applicable only to US Government
 contracts under FAR:
  
                    RESTRICTED RIGHTS LEGEND
  
 Use, reproduction and disclosure by the US Government is
 subject to restrictions as set forth in subparagraphs (a)
 and (c) of the Commercial Computer Software - Restricted
 Rights clause in FAR 52.227-19.
  
 Gaussian, Inc.
 340 Quinnipiac St., Bldg. 40, Wallingford CT 06492
  
  
 ---------------------------------------------------------------
 Warning -- This program may not be used in any manner that
 competes with the business of Gaussian, Inc. or will provide
 assistance to any competitor of Gaussian, Inc.  The licensee
 of this program is prohibited from giving any competitor of
 Gaussian, Inc. access to this program.  By using this program,
 the user acknowledges that Gaussian, Inc. is engaged in the
 business of creating and licensing software in the field of
 computational chemistry and represents and warrants to the
 licensee that it is not a competitor of Gaussian, Inc. and that
 it will not use this program in any manner prohibited above.
 ---------------------------------------------------------------
  

 Cite this work as:
 Gaussian 16, Revision B.01,
 M. J. Frisch, G. W. Trucks, H. B. Schlegel, G. E. Scuseria, 
 M. A. Robb, J. R. Cheeseman, G. Scalmani, V. Barone, 
 G. A. Petersson, H. Nakatsuji, X. Li, M. Caricato, A. V. Marenich, 
 J. Bloino, B. G. Janesko, R. Gomperts, B. Mennucci, H. P. Hratchian, 
 J. V. Ortiz, A. F. Izmaylov, J. L. Sonnenberg, D. Williams-Young, 
 F. Ding, F. Lipparini, F. Egidi, J. Goings, B. Peng, A. Petrone, 
 T. Henderson, D. Ranasinghe, V. G. Zakrzewski, J. Gao, N. Rega, 
 G. Zheng, W. Liang, M. Hada, M. Ehara, K. Toyota, R. Fukuda, 
 J. Hasegawa, M. Ishida, T. Nakajima, Y. Honda, O. Kitao, H. Nakai, 
 T. Vreven, K. Throssell, J. A. Montgomery, Jr., J. E. Peralta, 
 F. Ogliaro, M. J. Bearpark, J. J. Heyd, E. N. Brothers, K. N. Kudin, 
 V. N. Staroverov, T. A. Keith, R. Kobayashi, J. Normand, 
 K. Raghavachari, A. P. Rendell, J. C. Burant, S. S. Iyengar, 
 J. Tomasi, M. Cossi, J. M. Millam, M. Klene, C. Adamo, R. Cammi, 
 J. W. Ochterski, R. L. Martin, K. Morokuma, O. Farkas, 
 J. B. Foresman, and D. J. Fox, Gaussian, Inc., Wallingford CT, 2016.
 
 ******************************************
 Gaussian 16:  EM64M-G16RevB.01 20-Dec-2017
                 9-Mar-2026 
 ******************************************
 %mem=1600MB
 %nprocshared=4
 Will use up to    4 processors via shared memory.
 %chk=NH3-3-molecules_1.chk
 ----------------------------------------------------------------
 # opt freq b3lyp/6-311+g(2d,p) geom=connectivity out=wfn scf=xqc
 ----------------------------------------------------------------
 1/18=20,19=15,26=3,38=1,57=2/1,3;
 2/9=110,12=2,17=6,18=5,40=1/2;
 3/5=4,6=6,7=112,11=2,25=1,30=1,71=1,74=-5/1,2,3;
 4//1;
 5/5=2,8=3,13=1,38=5/2,8;
 6/7=2,8=2,9=2,10=2,28=1/1;
 7//1,2,3,16;
 1/18=20,19=15,26=3/3(2);
 2/9=110/2;
 99/6=100/99;
 2/9=110/2;
 3/5=4,6=6,7=112,11=2,25=1,30=1,71=1,74=-5/1,2,3;
 4/5=5,16=3,69=1/1;
 5/5=2,8=3,13=1,38=5/2,8;
 7//1,2,3,16;
 1/18=20,19=15,26=3/3(-5);
 2/9=110/2;
 6/7=2,8=2,9=2,10=2,19=2,28=1/1;
 99/6=100,9=1/99;
 -------------------
 Title Card Required
 -------------------
 Symbolic Z-matrix:
 Charge =  0 Multiplicity = 1
 H                    -0.38226   1.22233  -0.43451 
 H                    -2.26092  -1.10545  -0.76209 
 H                     1.56338  -0.346     0.78391 
 N                     1.58306  -1.00493   0.01838 
 H                     1.53767  -0.4552   -0.828 
 H                     2.48569  -1.45084   0.0342 
 N                     0.24493   1.8974   -0.04604 
 H                    -0.11442   2.6752    0.46961 
 N                    -1.76132  -0.67971   0.00174 
 H                    -2.25201  -0.91788   0.8482 
 H                    -0.85142  -1.12615   0.04868 
 H                     1.23148   1.79466  -0.1732 
 
 Add virtual bond connecting atoms H12        and H3         Dist= 4.48D+00.
 Add virtual bond connecting atoms H12        and H5         Dist= 4.47D+00.
 Add virtual bond connecting atoms N9         and H1         Dist= 4.52D+00.
 Add virtual bond connecting atoms H11        and H1         Dist= 4.62D+00.
 Add virtual bond connecting atoms H11        and N4         Dist= 4.61D+00.

 GradGradGradGradGradGradGradGradGradGradGradGradGradGradGradGradGradGrad
 Berny optimization.
 Initialization pass.
                           ----------------------------
                           !    Initial Parameters    !
                           ! (Angstroms and Degrees)  !
 --------------------------                            --------------------------
 ! Name  Definition              Value          Derivative Info.                !
 --------------------------------------------------------------------------------
 ! R1    R(1,7)                  1.0            estimate D2E/DX2                !
 ! R2    R(1,9)                  2.3895         estimate D2E/DX2                !
 ! R3    R(1,11)                 2.4431         estimate D2E/DX2                !
 ! R4    R(2,9)                  1.0071         estimate D2E/DX2                !
 ! R5    R(3,4)                  1.0103         estimate D2E/DX2                !
 ! R6    R(3,12)                 2.3683         estimate D2E/DX2                !
 ! R7    R(4,5)                  1.0103         estimate D2E/DX2                !
 ! R8    R(4,6)                  1.0069         estimate D2E/DX2                !
 ! R9    R(4,11)                 2.4377         estimate D2E/DX2                !
 ! R10   R(5,12)                 2.3631         estimate D2E/DX2                !
 ! R11   R(7,8)                  1.0            estimate D2E/DX2                !
 ! R12   R(7,12)                 1.0            estimate D2E/DX2                !
 ! R13   R(9,10)                 1.007          estimate D2E/DX2                !
 ! R14   R(9,11)                 1.0146         estimate D2E/DX2                !
 ! A1    A(7,1,9)              145.9338         estimate D2E/DX2                !
 ! A2    A(7,1,11)             133.83           estimate D2E/DX2                !
 ! A3    A(4,3,12)             106.6217         estimate D2E/DX2                !
 ! A4    A(3,4,5)              106.2029         estimate D2E/DX2                !
 ! A5    A(3,4,6)              107.1216         estimate D2E/DX2                !
 ! A6    A(3,4,11)              90.2045         estimate D2E/DX2                !
 ! A7    A(5,4,6)              107.1227         estimate D2E/DX2                !
 ! A8    A(5,4,11)              89.5761         estimate D2E/DX2                !
 ! A9    A(6,4,11)             150.8163         estimate D2E/DX2                !
 ! A10   A(4,5,12)             106.9626         estimate D2E/DX2                !
 ! A11   A(1,7,8)              120.0            estimate D2E/DX2                !
 ! A12   A(1,7,12)             120.0            estimate D2E/DX2                !
 ! A13   A(8,7,12)             120.0            estimate D2E/DX2                !
 ! A14   A(1,9,2)              118.9678         estimate D2E/DX2                !
 ! A15   A(1,9,10)             128.5327         estimate D2E/DX2                !
 ! A16   A(2,9,10)             107.2065         estimate D2E/DX2                !
 ! A17   A(2,9,11)             107.0946         estimate D2E/DX2                !
 ! A18   A(10,9,11)            107.1004         estimate D2E/DX2                !
 ! A19   A(1,11,4)              75.9934         estimate D2E/DX2                !
 ! A20   A(4,11,9)             150.8287         estimate D2E/DX2                !
 ! A21   A(3,12,5)              39.9376         estimate D2E/DX2                !
 ! A22   A(3,12,7)             100.3544         estimate D2E/DX2                !
 ! A23   A(5,12,7)             105.1223         estimate D2E/DX2                !
 ! D1    D(9,1,7,8)            -78.5138         estimate D2E/DX2                !
 ! D2    D(9,1,7,12)           101.4862         estimate D2E/DX2                !
 ! D3    D(11,1,7,8)          -111.6433         estimate D2E/DX2                !
 ! D4    D(11,1,7,12)           68.3567         estimate D2E/DX2                !
 ! D5    D(7,1,9,2)           -178.6197         estimate D2E/DX2                !
 ! D6    D(7,1,9,10)            30.5609         estimate D2E/DX2                !
 ! D7    D(7,1,11,4)           -45.8551         estimate D2E/DX2                !
 ! D8    D(12,3,4,5)             5.0685         estimate D2E/DX2                !
 ! D9    D(12,3,4,6)           119.294          estimate D2E/DX2                !
 ! D10   D(12,3,4,11)          -84.5495         estimate D2E/DX2                !
 ! D11   D(4,3,12,5)            -3.2388         estimate D2E/DX2                !
 ! D12   D(4,3,12,7)            97.999          estimate D2E/DX2                !
 ! D13   D(3,4,5,12)            -5.0887         estimate D2E/DX2                !
 ! D14   D(6,4,5,12)          -119.3135         estimate D2E/DX2                !
 ! D15   D(11,4,5,12)           85.0011         estimate D2E/DX2                !
 ! D16   D(3,4,11,1)            60.857          estimate D2E/DX2                !
 ! D17   D(3,4,11,9)            56.0056         estimate D2E/DX2                !
 ! D18   D(5,4,11,1)           -45.3448         estimate D2E/DX2                !
 ! D19   D(5,4,11,9)           -50.1963         estimate D2E/DX2                !
 ! D20   D(6,4,11,1)          -171.5423         estimate D2E/DX2                !
 ! D21   D(6,4,11,9)          -176.3937         estimate D2E/DX2                !
 ! D22   D(4,5,12,3)             3.2446         estimate D2E/DX2                !
 ! D23   D(4,5,12,7)           -84.879          estimate D2E/DX2                !
 ! D24   D(1,7,12,3)           -57.7054         estimate D2E/DX2                !
 ! D25   D(1,7,12,5)           -16.9954         estimate D2E/DX2                !
 ! D26   D(8,7,12,3)           122.2946         estimate D2E/DX2                !
 ! D27   D(8,7,12,5)           163.0046         estimate D2E/DX2                !
 ! D28   D(2,9,11,4)           122.5032         estimate D2E/DX2                !
 ! D29   D(10,9,11,4)         -122.7621         estimate D2E/DX2                !
 --------------------------------------------------------------------------------
 Trust Radius=3.00D-01 FncErr=1.00D-07 GrdErr=1.00D-06 EigMax=2.50D+02 EigMin=1.00D-04
 Number of steps in this run=     76 maximum allowed number of steps=    100.
 GradGradGradGradGradGradGradGradGradGradGradGradGradGradGradGradGradGrad

                          Input orientation:                          
 ---------------------------------------------------------------------
 Center     Atomic      Atomic             Coordinates (Angstroms)
 Number     Number       Type             X           Y           Z
 ---------------------------------------------------------------------
      1          1           0       -0.382262    1.222332   -0.434510
      2          1           0       -2.260917   -1.105447   -0.762087
      3          1           0        1.563384   -0.346000    0.783909
      4          7           0        1.583056   -1.004935    0.018381
      5          1           0        1.537669   -0.455195   -0.828004
      6          1           0        2.485686   -1.450841    0.034202
      7          7           0        0.244934    1.897397   -0.046035
      8          1           0       -0.114416    2.675203    0.469605
      9          7           0       -1.761317   -0.679706    0.001740
     10          1           0       -2.252010   -0.917877    0.848202
     11          1           0       -0.851419   -1.126146    0.048675
     12          1           0        1.231480    1.794656   -0.173200
 ---------------------------------------------------------------------
                    Distance matrix (angstroms):
                    1          2          3          4          5
     1  H    0.000000
     2  H    3.009187   0.000000
     3  H    2.780242   4.194299   0.000000
     4  N    3.004713   3.923692   1.010255   0.000000
     5  H    2.579742   3.854404   1.615812   1.010268   0.000000
     6  H    3.948502   4.825310   1.622768   1.006888   1.622790
     7  N    1.000000   3.976065   2.731290   3.196600   2.795949
     8  H    1.732051   4.518611   3.470082   4.077798   3.769956
     9  N    2.389531   1.007118   3.431732   3.360191   3.409133
    10  H    3.117981   1.621201   3.858550   3.924782   4.169581
    11  H    2.443138   1.626176   2.642058   2.437679   2.631821
    12  H    1.732051   4.577578   2.368254   2.828077   2.363123
                    6          7          8          9         10
     6  H    0.000000
     7  N    4.029653   0.000000
     8  H    4.896361   1.000000   0.000000
     9  N    4.316565   3.266311   3.766510   0.000000
    10  H    4.836570   3.867836   4.197960   1.006977   0.000000
    11  H    3.352895   3.217572   3.894947   1.014606   1.626123
    12  H    3.485584   1.000000   1.732051   3.887146   4.531644
                   11         12
    11  H    0.000000
    12  H    3.594270   0.000000
 Stoichiometry    H9N3
 Framework group  C1[X(H9N3)]
 Deg. of freedom    30
 Full point group                 C1      NOp   1
 Largest Abelian subgroup         C1      NOp   1
 Largest concise Abelian subgroup C1      NOp   1
                         Standard orientation:                         
 ---------------------------------------------------------------------
 Center     Atomic      Atomic             Coordinates (Angstroms)
 Number     Number       Type             X           Y           Z
 ---------------------------------------------------------------------
      1          1           0       -0.150179    1.232331   -0.423369
      2          1           0       -2.510917   -0.601643   -0.767845
      3          1           0        1.379670   -0.745252    0.792556
      4          7           0        1.250795   -1.387902    0.023786
      5          1           0        1.335832   -0.838795   -0.819951
      6          1           0        2.027182   -2.028830    0.039873
      7          7           0        0.613499    1.744068   -0.029769
      8          1           0        0.439932    2.581320    0.488771
      9          7           0       -1.930009   -0.304955   -0.000506
     10          1           0       -2.465475   -0.427953    0.843384
     11          1           0       -1.146790   -0.948200    0.046713
     12          1           0        1.550745    1.418552   -0.154710
 ---------------------------------------------------------------------
 Rotational constants (GHZ):           5.5482981           4.7344242           2.6368730
 Standard basis: 6-311+G(2d,p) (5D, 7F)
 There are   141 symmetry adapted cartesian basis functions of A   symmetry.
 There are   135 symmetry adapted basis functions of A   symmetry.
   135 basis functions,   198 primitive gaussians,   141 cartesian basis functions
    15 alpha electrons       15 beta electrons
       nuclear repulsion energy        83.9391043468 Hartrees.
 NAtoms=   12 NActive=   12 NUniq=   12 SFac= 1.00D+00 NAtFMM=   60 NAOKFM=F Big=F
 Integral buffers will be    131072 words long.
 Raffenetti 2 integral format.
 Two-electron integral symmetry is turned on.
 One-electron integrals computed using PRISM.
 NBasis=   135 RedAO= T EigKep=  2.03D-03  NBF=   135
 NBsUse=   135 1.00D-06 EigRej= -1.00D+00 NBFU=   135
 ExpMin= 6.39D-02 ExpMax= 6.29D+03 ExpMxC= 9.49D+02 IAcc=3 IRadAn=         5 AccDes= 0.00D+00
 Harris functional with IExCor=  402 and IRadAn=       5 diagonalized for initial guess.
 HarFok:  IExCor=  402 AccDes= 0.00D+00 IRadAn=         5 IDoV= 1 UseB2=F ITyADJ=14
 ICtDFT=  3500011 ScaDFX=  1.000000  1.000000  1.000000  1.000000
 FoFCou: FMM=F IPFlag=           0 FMFlag=      100000 FMFlg1=           0
         NFxFlg=           0 DoJE=T BraDBF=F KetDBF=T FulRan=T
         wScrn=  0.000000 ICntrl=       500 IOpCl=  0 I1Cent=   200000004 NGrid=           0
         NMat0=    1 NMatS0=      1 NMatT0=    0 NMatD0=    1 NMtDS0=    0 NMtDT0=    0
 Petite list used in FoFCou.
 Keep R1 ints in memory in canonical form, NReq=46014806.
 Requested convergence on RMS density matrix=1.00D-08 within  32 cycles.
 Requested convergence on MAX density matrix=1.00D-06.
 Requested convergence on             energy=1.00D-06.
 No special actions if energy rises.
 Integral accuracy reduced to 1.0D-05 until final iterations.
 Initial convergence to 1.0D-05 achieved.  Increase integral accuracy.
 SCF Done:  E(RB3LYP) =  -169.749543593     A.U. after   11 cycles
            NFock= 11  Conv=0.89D-08     -V/T= 2.0038
 QCSCF skips out because SCF is already converged.

 **********************************************************************

            Population analysis using the SCF Density.

 **********************************************************************

 Orbital symmetries:
       Occupied  (A) (A) (A) (A) (A) (A) (A) (A) (A) (A) (A) (A)
                 (A) (A) (A)
       Virtual   (A) (A) (A) (A) (A) (A) (A) (A) (A) (A) (A) (A)
                 (A) (A) (A) (A) (A) (A) (A) (A) (A) (A) (A) (A)
                 (A) (A) (A) (A) (A) (A) (A) (A) (A) (A) (A) (A)
                 (A) (A) (A) (A) (A) (A) (A) (A) (A) (A) (A) (A)
                 (A) (A) (A) (A) (A) (A) (A) (A) (A) (A) (A) (A)
                 (A) (A) (A) (A) (A) (A) (A) (A) (A) (A) (A) (A)
                 (A) (A) (A) (A) (A) (A) (A) (A) (A) (A) (A) (A)
                 (A) (A) (A) (A) (A) (A) (A) (A) (A) (A) (A) (A)
                 (A) (A) (A) (A) (A) (A) (A) (A) (A) (A) (A) (A)
                 (A) (A) (A) (A) (A) (A) (A) (A) (A) (A) (A) (A)
 The electronic state is 1-A.
 Alpha  occ. eigenvalues --  -14.29872 -14.28317 -14.26928  -0.86662  -0.85008
 Alpha  occ. eigenvalues --   -0.82928  -0.48822  -0.47640  -0.47225  -0.46636
 Alpha  occ. eigenvalues --   -0.46193  -0.45352  -0.28366  -0.26849  -0.23173
 Alpha virt. eigenvalues --   -0.00316   0.02931   0.04739   0.06673   0.09583
 Alpha virt. eigenvalues --    0.09913   0.10573   0.10668   0.12808   0.14191
 Alpha virt. eigenvalues --    0.14692   0.15139   0.16740   0.16965   0.17903
 Alpha virt. eigenvalues --    0.18585   0.21078   0.23282   0.24787   0.27306
 Alpha virt. eigenvalues --    0.31262   0.46927   0.47330   0.48446   0.51771
 Alpha virt. eigenvalues --    0.52377   0.54667   0.56504   0.60736   0.62133
 Alpha virt. eigenvalues --    0.66445   0.69698   0.71072   0.73497   0.76010
 Alpha virt. eigenvalues --    0.76737   0.81494   0.82657   0.84190   0.87180
 Alpha virt. eigenvalues --    0.89073   0.89410   0.91970   0.94135   0.96387
 Alpha virt. eigenvalues --    1.02875   1.05177   1.11264   1.15227   1.23965
 Alpha virt. eigenvalues --    1.31665   1.35756   1.38165   1.39616   1.42781
 Alpha virt. eigenvalues --    1.43030   1.46337   1.48395   1.52849   1.54681
 Alpha virt. eigenvalues --    1.66445   1.66922   1.69819   1.74950   1.79763
 Alpha virt. eigenvalues --    1.91092   1.96316   2.04076   2.04517   2.06054
 Alpha virt. eigenvalues --    2.10150   2.22473   2.23783   2.25769   2.26304
 Alpha virt. eigenvalues --    2.38786   2.42632   2.45312   2.50533   2.51136
 Alpha virt. eigenvalues --    2.52148   2.52715   2.54811   2.55691   2.58606
 Alpha virt. eigenvalues --    2.62073   2.62180   2.69744   2.82859   2.85443
 Alpha virt. eigenvalues --    2.88171   2.91985   2.94179   3.85834   4.05312
 Alpha virt. eigenvalues --    4.08521   4.59004   4.61601   4.61953   4.63684
 Alpha virt. eigenvalues --    4.74511   4.75676   4.79322   4.80405   4.81608
 Alpha virt. eigenvalues --    4.83179   4.84584   4.86421   4.88503   4.90878
 Alpha virt. eigenvalues --    4.96378   5.22258   5.22359   5.23562   5.24080
 Alpha virt. eigenvalues --    5.24582   5.25217  35.63521  35.65037  35.68848
          Condensed to atoms (all electrons):
               1          2          3          4          5          6
     1  H    0.384385   0.000207  -0.000426  -0.001693  -0.000110   0.000105
     2  H    0.000207   0.475926   0.000021   0.001054   0.000103  -0.000022
     3  H   -0.000426   0.000021   0.434392   0.383499  -0.037287  -0.028722
     4  N   -0.001693   0.001054   0.383499   6.591351   0.382749   0.368772
     5  H   -0.000110   0.000103  -0.037287   0.382749   0.460105  -0.030112
     6  H    0.000105  -0.000022  -0.028722   0.368772  -0.030112   0.456265
     7  N    0.393479   0.001424   0.007156  -0.023862   0.000332   0.001094
     8  H   -0.019680  -0.000051  -0.000192   0.001450  -0.000027  -0.000024
     9  N   -0.007770   0.360776  -0.003068  -0.000868  -0.002085   0.000487
    10  H    0.001014  -0.029338   0.000171   0.001390  -0.000026  -0.000023
    11  H   -0.002052  -0.028905   0.000910  -0.009691   0.000486   0.000245
    12  H   -0.026128  -0.000028   0.001173   0.004314   0.001418  -0.000243
               7          8          9         10         11         12
     1  H    0.393479  -0.019680  -0.007770   0.001014  -0.002052  -0.026128
     2  H    0.001424  -0.000051   0.360776  -0.029338  -0.028905  -0.000028
     3  H    0.007156  -0.000192  -0.003068   0.000171   0.000910   0.001173
     4  N   -0.023862   0.001450  -0.000868   0.001390  -0.009691   0.004314
     5  H    0.000332  -0.000027  -0.002085  -0.000026   0.000486   0.001418
     6  H    0.001094  -0.000024   0.000487  -0.000023   0.000245  -0.000243
     7  N    6.592238   0.385003  -0.039852   0.001527   0.000095   0.378353
     8  H    0.385003   0.429804   0.003936  -0.000040   0.000006  -0.025788
     9  N   -0.039852   0.003936   6.671942   0.369744   0.373258   0.000299
    10  H    0.001527  -0.000040   0.369744   0.462536  -0.028220  -0.000043
    11  H    0.000095   0.000006   0.373258  -0.028220   0.413191   0.000185
    12  H    0.378353  -0.025788   0.000299  -0.000043   0.000185   0.468149
 Mulliken charges:
               1
     1  H    0.278668
     2  H    0.218834
     3  H    0.242371
     4  N   -0.698464
     5  H    0.224455
     6  H    0.232178
     7  N   -0.696987
     8  H    0.225602
     9  N   -0.726797
    10  H    0.221308
    11  H    0.280492
    12  H    0.198339
 Sum of Mulliken charges =  -0.00000
 Mulliken charges with hydrogens summed into heavy atoms:
               1
     4  N    0.000541
     7  N    0.005622
     9  N   -0.006163
 Electronic spatial extent (au):  <R**2>=            472.4555
 Charge=             -0.0000 electrons
 Dipole moment (field-independent basis, Debye):
    X=              0.8847    Y=             -0.9467    Z=              0.2354  Tot=              1.3169
 Quadrupole moment (field-independent basis, Debye-Ang):
   XX=            -16.1521   YY=            -24.5764   ZZ=            -21.8359
   XY=             -0.2883   XZ=              0.0465   YZ=              2.3646
 Traceless Quadrupole moment (field-independent basis, Debye-Ang):
   XX=              4.7027   YY=             -3.7216   ZZ=             -0.9811
   XY=             -0.2883   XZ=              0.0465   YZ=              2.3646
 Octapole moment (field-independent basis, Debye-Ang**2):
  XXX=             -1.8356  YYY=              4.7919  ZZZ=              0.6725  XYY=              4.7114
  XXY=             -9.5482  XXZ=              0.8534  XZZ=             -2.6126  YZZ=             -3.9748
  YYZ=              7.0007  XYZ=              0.7677
 Hexadecapole moment (field-independent basis, Debye-Ang**3):
 XXXX=           -264.0852 YYYY=           -258.7173 ZZZZ=            -35.5582 XXXY=             -0.2641
 XXXZ=             -0.2899 YYYX=            -16.5456 YYYZ=             23.8743 ZZZX=             -0.2134
 ZZZY=              3.3199 XXYY=            -84.9358 XXZZ=            -47.0665 YYZZ=            -54.4017
 XXYZ=              2.3933 YYXZ=              5.0999 ZZXY=             -1.1881
 N-N= 8.393910434677D+01 E-N=-5.644484370936D+02  KE= 1.691032986751D+02
 Calling FoFJK, ICntrl=      2127 FMM=F ISym2X=0 I1Cent= 0 IOpClX= 0 NMat=1 NMatS=1 NMatT=0.
 ***** Axes restored to original set *****
 -------------------------------------------------------------------
 Center     Atomic                   Forces (Hartrees/Bohr)
 Number     Number              X              Y              Z
 -------------------------------------------------------------------
      1        1          -0.005725660   -0.002705858    0.002996503
      2        1          -0.004356219   -0.003426919   -0.005177669
      3        1          -0.002000153    0.003158349    0.004121531
      4        7          -0.004520050   -0.001427453    0.000432075
      5        1           0.000303566    0.001162042   -0.004582986
      6        1           0.006052537   -0.005182848   -0.000450389
      7        7           0.005353350    0.002154719    0.000177432
      8        1           0.000452206    0.000163811   -0.000823877
      9        7           0.004706696    0.004646746   -0.003495126
     10        1          -0.003737378   -0.000354631    0.006090599
     11        1           0.004015658   -0.002164642    0.000848225
     12        1          -0.000544554    0.003976684   -0.000136319
 -------------------------------------------------------------------
 Cartesian Forces:  Max     0.006090599 RMS     0.003437649

 GradGradGradGradGradGradGradGradGradGradGradGradGradGradGradGradGradGrad
 Berny optimization.
 FormGI is forming the generalized inverse of G from B-inverse, IUseBI=4.
 Internal  Forces:  Max     0.007714020 RMS     0.002099964
 Search for a local minimum.
 Step number   1 out of a maximum of   76
 All quantities printed in internal units (Hartrees-Bohrs-Radians)
 Mixed Optimization -- RFO/linear search
 Second derivative matrix not updated -- first step.
 ITU=  0
     Eigenvalues ---    0.00463   0.00920   0.01028   0.01393   0.01744
     Eigenvalues ---    0.01832   0.02273   0.02860   0.03884   0.04136
     Eigenvalues ---    0.06155   0.07311   0.08548   0.08988   0.09910
     Eigenvalues ---    0.10967   0.11392   0.12738   0.13633   0.14255
     Eigenvalues ---    0.16000   0.39703   0.40668   0.41529   0.44038
     Eigenvalues ---    0.46392   0.46458   0.46482   0.46498   0.47688
 RFO step:  Lambda=-1.20422254D-03 EMin= 4.63218265D-03
 Linear search not attempted -- first point.
 Iteration  1 RMS(Cart)=  0.01695985 RMS(Int)=  0.00039328
 Iteration  2 RMS(Cart)=  0.00028716 RMS(Int)=  0.00017335
 Iteration  3 RMS(Cart)=  0.00000025 RMS(Int)=  0.00017335
 Variable       Old X    -DE/DX   Delta X   Delta X   Delta X     New X
                                 (Linear)    (Quad)   (Total)
    R1        1.88973   0.00507   0.00000   0.01175   0.01165   1.90138
    R2        4.51556   0.00002   0.00000   0.00175   0.00180   4.51736
    R3        4.61686   0.00014   0.00000   0.03340   0.03311   4.64997
    R4        1.90318   0.00754   0.00000   0.01618   0.01618   1.91936
    R5        1.90911   0.00513   0.00000   0.01267   0.01274   1.92185
    R6        4.47535   0.00119   0.00000   0.05718   0.05723   4.53258
    R7        1.90913   0.00445   0.00000   0.01076   0.01077   1.91990
    R8        1.90274   0.00771   0.00000   0.01655   0.01655   1.91929
    R9        4.60655  -0.00002   0.00000  -0.00620  -0.00616   4.60038
   R10        4.46565   0.00225   0.00000   0.07268   0.07270   4.53835
   R11        1.88973  -0.00046   0.00000  -0.00096  -0.00096   1.88876
   R12        1.88973  -0.00070   0.00000  -0.00143  -0.00145   1.88828
   R13        1.90291   0.00702   0.00000   0.01507   0.01507   1.91798
   R14        1.91733   0.00357   0.00000   0.00826   0.00864   1.92596
    A1        2.54702   0.00173   0.00000   0.02206   0.02202   2.56904
    A2        2.33577   0.00069   0.00000   0.00173   0.00196   2.33773
    A3        1.86090   0.00003   0.00000   0.00598   0.00591   1.86680
    A4        1.85359  -0.00093   0.00000   0.00229   0.00226   1.85585
    A5        1.86962   0.00114   0.00000   0.01230   0.01228   1.88190
    A6        1.57436   0.00001   0.00000  -0.00488  -0.00489   1.56947
    A7        1.86964   0.00058   0.00000   0.00288   0.00287   1.87251
    A8        1.56340   0.00043   0.00000   0.00265   0.00256   1.56596
    A9        2.63224  -0.00159   0.00000  -0.01288  -0.01282   2.61943
   A10        1.86685  -0.00037   0.00000  -0.00284  -0.00282   1.86403
   A11        2.09440   0.00009   0.00000  -0.00056  -0.00049   2.09390
   A12        2.09440   0.00048   0.00000   0.00523   0.00483   2.09923
   A13        2.09440  -0.00057   0.00000  -0.00467  -0.00461   2.08978
   A14        2.07638   0.00124   0.00000   0.00692   0.00686   2.08324
   A15        2.24332  -0.00150   0.00000  -0.01653  -0.01670   2.22662
   A16        1.87111  -0.00010   0.00000  -0.00336  -0.00350   1.86761
   A17        1.86915   0.00084   0.00000   0.00471   0.00493   1.87408
   A18        1.86925   0.00043   0.00000   0.00645   0.00647   1.87572
   A19        1.32634   0.00016   0.00000   0.01206   0.01177   1.33811
   A20        2.63246  -0.00015   0.00000  -0.00241  -0.00275   2.62971
   A21        0.69704   0.00129   0.00000  -0.00546  -0.00538   0.69166
   A22        1.75151  -0.00140   0.00000  -0.01622  -0.01632   1.73519
   A23        1.83473  -0.00043   0.00000   0.00446   0.00421   1.83894
    D1       -1.37033   0.00043   0.00000  -0.04845  -0.04886  -1.41918
    D2        1.77127   0.00042   0.00000  -0.02305  -0.02355   1.74772
    D3       -1.94854  -0.00101   0.00000  -0.03905  -0.03858  -1.98713
    D4        1.19305  -0.00102   0.00000  -0.01365  -0.01328   1.17977
    D5       -3.11750   0.00006   0.00000   0.04132   0.04156  -3.07594
    D6        0.53339   0.00091   0.00000   0.07510   0.07503   0.60842
    D7       -0.80032   0.00183   0.00000   0.03567   0.03541  -0.76491
    D8        0.08846  -0.00027   0.00000   0.00071   0.00070   0.08917
    D9        2.08207   0.00047   0.00000   0.01070   0.01078   2.09285
   D10       -1.47567  -0.00072   0.00000  -0.00063  -0.00053  -1.47620
   D11       -0.05653   0.00014   0.00000  -0.00019  -0.00018  -0.05671
   D12        1.71041   0.00107   0.00000   0.02621   0.02625   1.73666
   D13       -0.08881   0.00030   0.00000  -0.00017  -0.00016  -0.08898
   D14       -2.08241  -0.00083   0.00000  -0.01661  -0.01663  -2.09904
   D15        1.48355   0.00044   0.00000  -0.00450  -0.00453   1.47902
   D16        1.06216  -0.00105   0.00000  -0.01818  -0.01816   1.04399
   D17        0.97748   0.00007   0.00000   0.01576   0.01562   0.99310
   D18       -0.79142  -0.00012   0.00000  -0.02051  -0.02045  -0.81187
   D19       -0.87609   0.00100   0.00000   0.01343   0.01333  -0.86276
   D20       -2.99398  -0.00040   0.00000  -0.01661  -0.01652  -3.01050
   D21       -3.07865   0.00072   0.00000   0.01733   0.01726  -3.06139
   D22        0.05663  -0.00013   0.00000   0.00009   0.00009   0.05672
   D23       -1.48142   0.00119   0.00000   0.03292   0.03307  -1.44835
   D24       -1.00715  -0.00018   0.00000  -0.01062  -0.01031  -1.01746
   D25       -0.29663   0.00089   0.00000  -0.01970  -0.01963  -0.31626
   D26        2.13444  -0.00020   0.00000   0.01478   0.01493   2.14937
   D27        2.84497   0.00087   0.00000   0.00570   0.00561   2.85058
   D28        2.13808   0.00005   0.00000  -0.02212  -0.02218   2.11591
   D29       -2.14260   0.00055   0.00000  -0.02063  -0.02068  -2.16328
         Item               Value     Threshold  Converged?
 Maximum Force            0.007714     0.000450     NO 
 RMS     Force            0.002100     0.000300     NO 
 Maximum Displacement     0.049461     0.001800     NO 
 RMS     Displacement     0.017019     0.001200     NO 
 Predicted change in Energy=-6.201171D-04
 GradGradGradGradGradGradGradGradGradGradGradGradGradGradGradGradGradGrad

                          Input orientation:                          
 ---------------------------------------------------------------------
 Center     Atomic      Atomic             Coordinates (Angstroms)
 Number     Number       Type             X           Y           Z
 ---------------------------------------------------------------------
      1          1           0       -0.400718    1.237912   -0.412899
      2          1           0       -2.258090   -1.117255   -0.773823
      3          1           0        1.563870   -0.345303    0.784248
      4          7           0        1.587316   -1.015755    0.019898
      5          1           0        1.542747   -0.472932   -0.837743
      6          1           0        2.492024   -1.476941    0.038512
      7          7           0        0.241576    1.915564   -0.037910
      8          1           0       -0.104126    2.701377    0.473921
      9          7           0       -1.756777   -0.687389   -0.002133
     10          1           0       -2.264005   -0.917589    0.846312
     11          1           0       -0.843830   -1.136725    0.055714
     12          1           0        1.223880    1.818478   -0.193220
 ---------------------------------------------------------------------
                    Distance matrix (angstroms):
                    1          2          3          4          5
     1  H    0.000000
     2  H    3.021078   0.000000
     3  H    2.792729   4.198914   0.000000
     4  N    3.036216   3.927779   1.016998   0.000000
     5  H    2.623840   3.855593   1.627141   1.015968   0.000000
     6  H    3.992762   4.832478   1.642618   1.015644   1.636149
     7  N    1.006166   3.998486   2.745164   3.225987   2.835082
     8  H    1.736705   4.558331   3.487229   4.109037   3.809053
     9  N    2.390483   1.015680   3.429594   3.360248   3.410438
    10  H    3.115066   1.632403   3.870917   3.940213   4.186302
    11  H    2.460660   1.639709   2.637069   2.434418   2.633370
    12  H    1.739148   4.591269   2.398538   2.865377   2.401593
                    6          7          8          9         10
     6  H    0.000000
     7  N    4.071786   0.000000
     8  H    4.938412   0.999491   0.000000
     9  N    4.321730   3.281777   3.800213   0.000000
    10  H    4.856462   3.884140   4.230918   1.014954   0.000000
    11  H    3.353202   3.240886   3.931041   1.019176   1.640111
    12  H    3.538598   0.999234   1.728637   3.898744   4.553245
                   11         12
    11  H    0.000000
    12  H    3.615332   0.000000
 Stoichiometry    H9N3
 Framework group  C1[X(H9N3)]
 Deg. of freedom    30
 Full point group                 C1      NOp   1
 Largest Abelian subgroup         C1      NOp   1
 Largest concise Abelian subgroup C1      NOp   1
                         Standard orientation:                         
 ---------------------------------------------------------------------
 Center     Atomic      Atomic             Coordinates (Angstroms)
 Number     Number       Type             X           Y           Z
 ---------------------------------------------------------------------
      1          1           0       -0.153399    1.252601   -0.405734
      2          1           0       -2.519302   -0.589354   -0.775341
      3          1           0        1.372756   -0.756622    0.791433
      4          7           0        1.236939   -1.411888    0.025622
      5          1           0        1.325467   -0.872662   -0.830876
      6          1           0        2.005045   -2.076099    0.044850
      7          7           0        0.631458    1.756314   -0.028052
      8          1           0        0.482546    2.601107    0.484914
      9          7           0       -1.931512   -0.293211   -0.001773
     10          1           0       -2.481034   -0.396899    0.845226
     11          1           0       -1.152662   -0.947955    0.056730
     12          1           0        1.562391    1.427381   -0.181787
 ---------------------------------------------------------------------
 Rotational constants (GHZ):           5.4363432           4.7340532           2.6118298
 Standard basis: 6-311+G(2d,p) (5D, 7F)
 There are   141 symmetry adapted cartesian basis functions of A   symmetry.
 There are   135 symmetry adapted basis functions of A   symmetry.
   135 basis functions,   198 primitive gaussians,   141 cartesian basis functions
    15 alpha electrons       15 beta electrons
       nuclear repulsion energy        83.5080928893 Hartrees.
 NAtoms=   12 NActive=   12 NUniq=   12 SFac= 1.00D+00 NAtFMM=   60 NAOKFM=F Big=F
 Integral buffers will be    131072 words long.
 Raffenetti 2 integral format.
 Two-electron integral symmetry is turned on.
 One-electron integrals computed using PRISM.
 NBasis=   135 RedAO= T EigKep=  2.05D-03  NBF=   135
 NBsUse=   135 1.00D-06 EigRej= -1.00D+00 NBFU=   135
 Initial guess from the checkpoint file:  "NH3-3-molecules_1.chk"
 B after Tr=    -0.000000    0.000000   -0.000000
         Rot=    0.999988    0.000477   -0.000139    0.004781 Ang=   0.55 deg.
 ExpMin= 6.39D-02 ExpMax= 6.29D+03 ExpMxC= 9.49D+02 IAcc=3 IRadAn=         5 AccDes= 0.00D+00
 Harris functional with IExCor=  402 and IRadAn=       5 diagonalized for initial guess.
 HarFok:  IExCor=  402 AccDes= 0.00D+00 IRadAn=         5 IDoV= 1 UseB2=F ITyADJ=14
 ICtDFT=  3500011 ScaDFX=  1.000000  1.000000  1.000000  1.000000
 FoFCou: FMM=F IPFlag=           0 FMFlag=      100000 FMFlg1=           0
         NFxFlg=           0 DoJE=T BraDBF=F KetDBF=T FulRan=T
         wScrn=  0.000000 ICntrl=       500 IOpCl=  0 I1Cent=   200000004 NGrid=           0
         NMat0=    1 NMatS0=      1 NMatT0=    0 NMatD0=    1 NMtDS0=    0 NMtDT0=    0
 Petite list used in FoFCou.
 Keep R1 ints in memory in canonical form, NReq=46014806.
 Requested convergence on RMS density matrix=1.00D-08 within  32 cycles.
 Requested convergence on MAX density matrix=1.00D-06.
 Requested convergence on             energy=1.00D-06.
 No special actions if energy rises.
 Integral accuracy reduced to 1.0D-05 until final iterations.
 Initial convergence to 1.0D-05 achieved.  Increase integral accuracy.
 SCF Done:  E(RB3LYP) =  -169.750405376     A.U. after    9 cycles
            NFock=  9  Conv=0.43D-08     -V/T= 2.0043
 QCSCF skips out because SCF is already converged.
 Calling FoFJK, ICntrl=      2127 FMM=F ISym2X=0 I1Cent= 0 IOpClX= 0 NMat=1 NMatS=1 NMatT=0.
 ***** Axes restored to original set *****
 -------------------------------------------------------------------
 Center     Atomic                   Forces (Hartrees/Bohr)
 Number     Number              X              Y              Z
 -------------------------------------------------------------------
      1        1          -0.001923648    0.000789760    0.004534455
      2        1          -0.000148404   -0.000657626    0.000447070
      3        1          -0.000656195   -0.000667651   -0.000478569
      4        7          -0.000014000    0.000669610    0.000241946
      5        1           0.000965808   -0.001273785   -0.000211148
      6        1          -0.000693362   -0.000614508    0.000008842
      7        7           0.001297622   -0.002021343   -0.000819109
      8        1           0.000014343    0.000708512   -0.000768719
      9        7           0.000687746   -0.000071252   -0.003208389
     10        1           0.000206003    0.000798224    0.000329455
     11        1           0.000134927   -0.001075405    0.000730917
     12        1           0.000129161    0.003415463   -0.000806751
 -------------------------------------------------------------------
 Cartesian Forces:  Max     0.004534455 RMS     0.001330687

 GradGradGradGradGradGradGradGradGradGradGradGradGradGradGradGradGradGrad
 Berny optimization.
 Using GEDIIS/GDIIS optimizer.
 FormGI is forming the generalized inverse of G from B-inverse, IUseBI=4.
 Internal  Forces:  Max     0.001680919 RMS     0.000592890
 Search for a local minimum.
 Step number   2 out of a maximum of   76
 All quantities printed in internal units (Hartrees-Bohrs-Radians)
 Mixed Optimization -- En-DIIS/RFO-DIIS
 Update second derivatives using D2CorX and points    1    2
 DE= -8.62D-04 DEPred=-6.20D-04 R= 1.39D+00
 TightC=F SS=  1.41D+00  RLast= 1.78D-01 DXNew= 5.0454D-01 5.3305D-01
 Trust test= 1.39D+00 RLast= 1.78D-01 DXMaxT set to 5.05D-01
 ITU=  1  0
 Use linear search instead of GDIIS.
     Eigenvalues ---    0.00440   0.00590   0.00992   0.01317   0.01623
     Eigenvalues ---    0.01815   0.02244   0.02795   0.03846   0.04122
     Eigenvalues ---    0.06270   0.07131   0.08526   0.08827   0.09888
     Eigenvalues ---    0.10795   0.10974   0.11999   0.13600   0.14067
     Eigenvalues ---    0.15991   0.40056   0.40925   0.41806   0.44587
     Eigenvalues ---    0.46393   0.46465   0.46482   0.47681   0.63809
 RFO step:  Lambda=-9.15079157D-04 EMin= 4.39963523D-03
 Quartic linear search produced a step of  0.78729.
 Iteration  1 RMS(Cart)=  0.03683182 RMS(Int)=  0.00252359
 Iteration  2 RMS(Cart)=  0.00177985 RMS(Int)=  0.00120810
 Iteration  3 RMS(Cart)=  0.00000981 RMS(Int)=  0.00120804
 Iteration  4 RMS(Cart)=  0.00000003 RMS(Int)=  0.00120804
 Variable       Old X    -DE/DX   Delta X   Delta X   Delta X     New X
                                 (Linear)    (Quad)   (Total)
    R1        1.90138  -0.00019   0.00917  -0.00095   0.00763   1.90901
    R2        4.51736  -0.00042   0.00142  -0.01192  -0.00986   4.50750
    R3        4.64997   0.00031   0.02607   0.03970   0.06360   4.71358
    R4        1.91936   0.00001   0.01274  -0.00114   0.01160   1.93096
    R5        1.92185  -0.00020   0.01003  -0.00126   0.00930   1.93115
    R6        4.53258   0.00094   0.04506   0.07445   0.11976   4.65234
    R7        1.91990  -0.00001   0.00848  -0.00073   0.00779   1.92769
    R8        1.91929  -0.00034   0.01303  -0.00246   0.01057   1.92986
    R9        4.60038  -0.00036  -0.00485  -0.02288  -0.02756   4.57282
   R10        4.53835   0.00136   0.05723   0.09880   0.15614   4.69449
   R11        1.88876   0.00016  -0.00076   0.00064  -0.00011   1.88865
   R12        1.88828   0.00016  -0.00114   0.00035  -0.00081   1.88747
   R13        1.91798  -0.00001   0.01187  -0.00113   0.01074   1.92872
   R14        1.92596  -0.00019   0.00680  -0.00148   0.00785   1.93382
    A1        2.56904   0.00168   0.01733   0.03252   0.04930   2.61834
    A2        2.33773   0.00121   0.00154   0.00211   0.00544   2.34318
    A3        1.86680   0.00040   0.00465   0.01215   0.01636   1.88316
    A4        1.85585  -0.00020   0.00178   0.00276   0.00433   1.86018
    A5        1.88190   0.00038   0.00967   0.00270   0.01232   1.89422
    A6        1.56947   0.00020  -0.00385   0.00062  -0.00357   1.56591
    A7        1.87251   0.00013   0.00226   0.00098   0.00341   1.87593
    A8        1.56596   0.00028   0.00201   0.00848   0.00991   1.57587
    A9        2.61943  -0.00080  -0.01009  -0.01197  -0.02151   2.59792
   A10        1.86403   0.00007  -0.00222  -0.00294  -0.00520   1.85883
   A11        2.09390   0.00002  -0.00039  -0.00066  -0.00127   2.09263
   A12        2.09923   0.00024   0.00380   0.00243   0.00287   2.10210
   A13        2.08978  -0.00026  -0.00363  -0.00338  -0.00732   2.08246
   A14        2.08324   0.00133   0.00540   0.01469   0.02000   2.10324
   A15        2.22662  -0.00147  -0.01315  -0.02274  -0.03628   2.19034
   A16        1.86761   0.00006  -0.00275  -0.00322  -0.00640   1.86120
   A17        1.87408   0.00014   0.00388  -0.00352   0.00182   1.87590
   A18        1.87572  -0.00040   0.00509  -0.00281   0.00212   1.87784
   A19        1.33811  -0.00026   0.00927   0.01663   0.02395   1.36206
   A20        2.62971  -0.00059  -0.00217  -0.00711  -0.01162   2.61808
   A21        0.69166  -0.00028  -0.00424  -0.01340  -0.01705   0.67461
   A22        1.73519  -0.00111  -0.01285  -0.03021  -0.04343   1.69176
   A23        1.83894  -0.00049   0.00331   0.00787   0.00915   1.84809
    D1       -1.41918  -0.00017  -0.03846  -0.10037  -0.14133  -1.56051
    D2        1.74772   0.00010  -0.01854  -0.02662  -0.04832   1.69939
    D3       -1.98713  -0.00067  -0.03038  -0.07779  -0.10496  -2.09208
    D4        1.17977  -0.00040  -0.01046  -0.00404  -0.01195   1.16782
    D5       -3.07594   0.00042   0.03272   0.08162   0.11576  -2.96018
    D6        0.60842   0.00052   0.05907   0.10843   0.16746   0.77588
    D7       -0.76491   0.00112   0.02788   0.05325   0.07893  -0.68598
    D8        0.08917   0.00001   0.00055   0.01390   0.01460   0.10377
    D9        2.09285   0.00025   0.00849   0.01765   0.02664   2.11949
   D10       -1.47620  -0.00034  -0.00042   0.00490   0.00533  -1.47087
   D11       -0.05671  -0.00001  -0.00014  -0.00844  -0.00860  -0.06531
   D12        1.73666   0.00057   0.02067   0.04158   0.06255   1.79921
   D13       -0.08898   0.00000  -0.00013  -0.01299  -0.01308  -0.10206
   D14       -2.09904  -0.00040  -0.01309  -0.01788  -0.03102  -2.13006
   D15        1.47902   0.00030  -0.00356  -0.00987  -0.01387   1.46515
   D16        1.04399  -0.00097  -0.01430  -0.03410  -0.04804   0.99595
   D17        0.99310   0.00029   0.01230   0.02221   0.03358   1.02668
   D18       -0.81187  -0.00077  -0.01610  -0.03684  -0.05234  -0.86421
   D19       -0.86276   0.00049   0.01049   0.01948   0.02928  -0.83348
   D20       -3.01050  -0.00069  -0.01301  -0.04228  -0.05453  -3.06503
   D21       -3.06139   0.00058   0.01359   0.01403   0.02709  -3.03430
   D22        0.05672   0.00000   0.00007   0.00817   0.00822   0.06494
   D23       -1.44835   0.00128   0.02604   0.07116   0.09811  -1.35023
   D24       -1.01746   0.00041  -0.00812  -0.02891  -0.03481  -1.05227
   D25       -0.31626  -0.00010  -0.01546  -0.05031  -0.06525  -0.38151
   D26        2.14937   0.00067   0.01175   0.04463   0.05758   2.20695
   D27        2.85058   0.00017   0.00442   0.02323   0.02714   2.87771
   D28        2.11591   0.00023  -0.01746  -0.03340  -0.05105   2.06485
   D29       -2.16328   0.00017  -0.01628  -0.04024  -0.05654  -2.21982
         Item               Value     Threshold  Converged?
 Maximum Force            0.001681     0.000450     NO 
 RMS     Force            0.000593     0.000300     NO 
 Maximum Displacement     0.115742     0.001800     NO 
 RMS     Displacement     0.037211     0.001200     NO 
 Predicted change in Energy=-6.822574D-04
 GradGradGradGradGradGradGradGradGradGradGradGradGradGradGradGradGradGrad

                          Input orientation:                          
 ---------------------------------------------------------------------
 Center     Atomic      Atomic             Coordinates (Angstroms)
 Number     Number       Type             X           Y           Z
 ---------------------------------------------------------------------
      1          1           0       -0.437130    1.270493   -0.351650
      2          1           0       -2.232508   -1.135776   -0.792829
      3          1           0        1.564902   -0.346765    0.773380
      4          7           0        1.587901   -1.039289    0.022245
      5          1           0        1.549826   -0.519189   -0.854469
      6          1           0        2.487113   -1.522360    0.053587
      7          7           0        0.231968    1.946578   -0.011454
      8          1           0       -0.084908    2.758196    0.478165
      9          7           0       -1.739969   -0.698394   -0.011664
     10          1           0       -2.273894   -0.917716    0.830071
     11          1           0       -0.828591   -1.156191    0.072124
     12          1           0        1.199160    1.863855   -0.246627
 ---------------------------------------------------------------------
                    Distance matrix (angstroms):
                    1          2          3          4          5
     1  H    0.000000
     2  H    3.034494   0.000000
     3  H    2.808798   4.182806   0.000000
     4  N    3.094453   3.907580   1.021920   0.000000
     5  H    2.720990   3.832757   1.637025   1.020089   0.000000
     6  H    4.063920   4.810477   1.658493   1.021236   1.646033
     7  N    1.010206   4.023070   2.766243   3.279495   2.920176
     8  H    1.739516   4.625001   3.528428   4.174571   3.897374
     9  N    2.385267   1.021820   3.414983   3.345457   3.400763
    10  H    3.091671   1.638007   3.881437   3.947255   4.197300
    11  H    2.494318   1.649104   2.622162   2.419832   2.630819
    12  H    1.743718   4.590476   2.461915   2.941370   2.484218
                    6          7          8          9         10
     6  H    0.000000
     7  N    4.138048   0.000000
     8  H    5.011858   0.999431   0.000000
     9  N    4.307134   3.299154   3.863571   0.000000
    10  H    4.861657   3.897652   4.292765   1.020635   0.000000
    11  H    3.335913   3.280083   4.005042   1.023332   1.649319
    12  H    3.635300   0.998804   1.724529   3.906253   4.578048
                   11         12
    11  H    0.000000
    12  H    3.651582   0.000000
 Stoichiometry    H9N3
 Framework group  C1[X(H9N3)]
 Deg. of freedom    30
 Full point group                 C1      NOp   1
 Largest Abelian subgroup         C1      NOp   1
 Largest concise Abelian subgroup C1      NOp   1
                         Standard orientation:                         
 ---------------------------------------------------------------------
 Center     Atomic      Atomic             Coordinates (Angstroms)
 Number     Number       Type             X           Y           Z
 ---------------------------------------------------------------------
      1          1           0       -0.146232    1.296169   -0.356885
      2          1           0       -2.520271   -0.544999   -0.783723
      3          1           0        1.352786   -0.791291    0.776607
      4          7           0        1.188445   -1.468800    0.029416
      5          1           0        1.289133   -0.962177   -0.850229
      6          1           0        1.925879   -2.174472    0.063183
      7          7           0        0.679864    1.770631   -0.020781
      8          1           0        0.592366    2.640042    0.464327
      9          7           0       -1.927289   -0.250982   -0.005236
     10          1           0       -2.498838   -0.315074    0.837925
     11          1           0       -1.171277   -0.935269    0.080828
     12          1           0        1.589316    1.431130   -0.255827
 ---------------------------------------------------------------------
 Rotational constants (GHZ):           5.2387838           4.7842382           2.5797423
 Standard basis: 6-311+G(2d,p) (5D, 7F)
 There are   141 symmetry adapted cartesian basis functions of A   symmetry.
 There are   135 symmetry adapted basis functions of A   symmetry.
   135 basis functions,   198 primitive gaussians,   141 cartesian basis functions
    15 alpha electrons       15 beta electrons
       nuclear repulsion energy        83.0461695619 Hartrees.
 NAtoms=   12 NActive=   12 NUniq=   12 SFac= 1.00D+00 NAtFMM=   60 NAOKFM=F Big=F
 Integral buffers will be    131072 words long.
 Raffenetti 2 integral format.
 Two-electron integral symmetry is turned on.
 One-electron integrals computed using PRISM.
 NBasis=   135 RedAO= T EigKep=  2.05D-03  NBF=   135
 NBsUse=   135 1.00D-06 EigRej= -1.00D+00 NBFU=   135
 Initial guess from the checkpoint file:  "NH3-3-molecules_1.chk"
 B after Tr=    -0.000000    0.000000    0.000000
         Rot=    0.999901    0.001118   -0.000314    0.014013 Ang=   1.61 deg.
 ExpMin= 6.39D-02 ExpMax= 6.29D+03 ExpMxC= 9.49D+02 IAcc=3 IRadAn=         5 AccDes= 0.00D+00
 Harris functional with IExCor=  402 and IRadAn=       5 diagonalized for initial guess.
 HarFok:  IExCor=  402 AccDes= 0.00D+00 IRadAn=         5 IDoV= 1 UseB2=F ITyADJ=14
 ICtDFT=  3500011 ScaDFX=  1.000000  1.000000  1.000000  1.000000
 FoFCou: FMM=F IPFlag=           0 FMFlag=      100000 FMFlg1=           0
         NFxFlg=           0 DoJE=T BraDBF=F KetDBF=T FulRan=T
         wScrn=  0.000000 ICntrl=       500 IOpCl=  0 I1Cent=   200000004 NGrid=           0
         NMat0=    1 NMatS0=      1 NMatT0=    0 NMatD0=    1 NMtDS0=    0 NMtDT0=    0
 Petite list used in FoFCou.
 Keep R1 ints in memory in canonical form, NReq=46014806.
 Requested convergence on RMS density matrix=1.00D-08 within  32 cycles.
 Requested convergence on MAX density matrix=1.00D-06.
 Requested convergence on             energy=1.00D-06.
 No special actions if energy rises.
 Integral accuracy reduced to 1.0D-05 until final iterations.
 Initial convergence to 1.0D-05 achieved.  Increase integral accuracy.
 SCF Done:  E(RB3LYP) =  -169.751494877     A.U. after    9 cycles
            NFock=  9  Conv=0.60D-08     -V/T= 2.0047
 QCSCF skips out because SCF is already converged.
 Calling FoFJK, ICntrl=      2127 FMM=F ISym2X=0 I1Cent= 0 IOpClX= 0 NMat=1 NMatS=1 NMatT=0.
 ***** Axes restored to original set *****
 -------------------------------------------------------------------
 Center     Atomic                   Forces (Hartrees/Bohr)
 Number     Number              X              Y              Z
 -------------------------------------------------------------------
      1        1           0.000560034    0.002793596    0.003946642
      2        1           0.002721844    0.001418368    0.004041050
      3        1           0.000485853   -0.003308203   -0.003692135
      4        7           0.002175107    0.002073089   -0.000121304
      5        1           0.001376947   -0.002713186    0.003112123
      6        1          -0.004748180    0.002718348    0.000369369
      7        7          -0.001101849   -0.005628314    0.001586376
      8        1          -0.000345143    0.001366798   -0.001467735
      9        7          -0.001655179   -0.003633394   -0.002610549
     10        1           0.002975019    0.001595013   -0.003263218
     11        1          -0.002878716    0.000178999    0.000265637
     12        1           0.000434264    0.003138886   -0.002166256
 -------------------------------------------------------------------
 Cartesian Forces:  Max     0.005628314 RMS     0.002580840

 GradGradGradGradGradGradGradGradGradGradGradGradGradGradGradGradGradGrad
 Berny optimization.
 Using GEDIIS/GDIIS optimizer.
 FormGI is forming the generalized inverse of G from B-inverse, IUseBI=4.
 Internal  Forces:  Max     0.005455359 RMS     0.001510419
 Search for a local minimum.
 Step number   3 out of a maximum of   76
 All quantities printed in internal units (Hartrees-Bohrs-Radians)
 Mixed Optimization -- RFO/linear search
 Update second derivatives using D2CorX and points    1    2    3
 DE= -1.09D-03 DEPred=-6.82D-04 R= 1.60D+00
 TightC=F SS=  1.41D+00  RLast= 4.19D-01 DXNew= 8.4853D-01 1.2576D+00
 Trust test= 1.60D+00 RLast= 4.19D-01 DXMaxT set to 8.49D-01
 ITU=  1  1  0
 Use linear search instead of GDIIS.
     Eigenvalues ---    0.00120   0.00475   0.00969   0.01271   0.01779
     Eigenvalues ---    0.01924   0.02247   0.02784   0.03856   0.04100
     Eigenvalues ---    0.06447   0.07300   0.08544   0.08960   0.09912
     Eigenvalues ---    0.10503   0.10965   0.11928   0.13581   0.14039
     Eigenvalues ---    0.15902   0.40294   0.41264   0.42014   0.44724
     Eigenvalues ---    0.46369   0.46470   0.46484   0.47684   1.23771
 RFO step:  Lambda=-1.56775917D-03 EMin= 1.20158093D-03
 Quartic linear search produced a step of  2.00000.
 Iteration  1 RMS(Cart)=  0.06883497 RMS(Int)=  0.05163873
 Iteration  2 RMS(Cart)=  0.03434264 RMS(Int)=  0.01111312
 Iteration  3 RMS(Cart)=  0.00121569 RMS(Int)=  0.01103725
 Iteration  4 RMS(Cart)=  0.00002513 RMS(Int)=  0.01103723
 Iteration  5 RMS(Cart)=  0.00000072 RMS(Int)=  0.01103723
 Variable       Old X    -DE/DX   Delta X   Delta X   Delta X     New X
                                 (Linear)    (Quad)   (Total)
    R1        1.90901  -0.00325   0.01527   0.00037   0.01132   1.92033
    R2        4.50750  -0.00078  -0.01971  -0.03054  -0.04087   4.46663
    R3        4.71358   0.00011   0.12721   0.01449   0.12236   4.83594
    R4        1.93096  -0.00501   0.02320  -0.00096   0.02225   1.95320
    R5        1.93115  -0.00398   0.01860  -0.00230   0.02059   1.95174
    R6        4.65234   0.00060   0.23953   0.07459   0.31379   4.96614
    R7        1.92769  -0.00328   0.01557  -0.00215   0.01341   1.94110
    R8        1.92986  -0.00546   0.02113  -0.00163   0.01951   1.94936
    R9        4.57282  -0.00064  -0.05513  -0.02274  -0.07714   4.49568
   R10        4.69449   0.00060   0.31228   0.10587   0.42000   5.11449
   R11        1.88865   0.00050  -0.00023   0.00053   0.00031   1.88896
   R12        1.88747   0.00076  -0.00163   0.00008   0.00046   1.88793
   R13        1.92872  -0.00459   0.02147  -0.00051   0.02096   1.94968
   R14        1.93382  -0.00316   0.01571  -0.00210   0.03229   1.96610
    A1        2.61834   0.00127   0.09860   0.03131   0.11948   2.73781
    A2        2.34318   0.00142   0.01088   0.00557   0.02937   2.37254
    A3        1.88316   0.00069   0.03271   0.01542   0.04504   1.92820
    A4        1.86018   0.00026   0.00866  -0.00007   0.00743   1.86761
    A5        1.89422  -0.00034   0.02463  -0.00045   0.02438   1.91860
    A6        1.56591   0.00048  -0.00713   0.00462  -0.00834   1.55757
    A7        1.87593  -0.00018   0.00683   0.00067   0.00903   1.88495
    A8        1.57587   0.00016   0.01983   0.00995   0.02561   1.60148
    A9        2.59792  -0.00016  -0.04302  -0.01232  -0.04894   2.54898
   A10        1.85883   0.00037  -0.01040  -0.00375  -0.01638   1.84246
   A11        2.09263   0.00006  -0.00255  -0.00111  -0.01362   2.07901
   A12        2.10210  -0.00014   0.00574  -0.01048  -0.03949   2.06261
   A13        2.08246  -0.00004  -0.01465  -0.00545  -0.03550   2.04696
   A14        2.10324   0.00111   0.04000   0.01684   0.05355   2.15678
   A15        2.19034  -0.00143  -0.07257  -0.02941  -0.09855   2.09179
   A16        1.86120   0.00038  -0.01281   0.00069  -0.01469   1.84651
   A17        1.87590  -0.00032   0.00364  -0.00116   0.01379   1.88969
   A18        1.87784  -0.00090   0.00423  -0.00216   0.00135   1.87919
   A19        1.36206  -0.00065   0.04790   0.01360   0.04770   1.40976
   A20        2.61808  -0.00095  -0.02325  -0.00989  -0.04686   2.57123
   A21        0.67461  -0.00134  -0.03411  -0.01445  -0.04396   0.63064
   A22        1.69176  -0.00092  -0.08686  -0.04732  -0.13246   1.55931
   A23        1.84809  -0.00070   0.01830   0.00276   0.00327   1.85136
    D1       -1.56051  -0.00096  -0.28266  -0.15893  -0.45846  -2.01897
    D2        1.69939   0.00017  -0.09665   0.00866  -0.11135   1.58804
    D3       -2.09208  -0.00059  -0.20991  -0.13495  -0.31526  -2.40734
    D4        1.16782   0.00054  -0.02390   0.03265   0.03186   1.19967
    D5       -2.96018   0.00060   0.23153   0.07348   0.31606  -2.64412
    D6        0.77588   0.00030   0.33492   0.09766   0.43269   1.20857
    D7       -0.68598   0.00035   0.15786   0.04603   0.17742  -0.50856
    D8        0.10377   0.00027   0.02920   0.02400   0.05570   0.15947
    D9        2.11949   0.00003   0.05327   0.02452   0.08271   2.20220
   D10       -1.47087  -0.00004   0.01066   0.01224   0.03150  -1.43937
   D11       -0.06531  -0.00016  -0.01721  -0.01471  -0.03258  -0.09789
   D12        1.79921   0.00020   0.12510   0.05346   0.18045   1.97966
   D13       -0.10206  -0.00026  -0.02616  -0.02231  -0.04845  -0.15051
   D14       -2.13006   0.00010  -0.06203  -0.02208  -0.08523  -2.21529
   D15        1.46515   0.00029  -0.02775  -0.01452  -0.04931   1.41584
   D16        0.99595  -0.00084  -0.09609  -0.04370  -0.13112   0.86483
   D17        1.02668   0.00035   0.06715   0.00871   0.06830   1.09497
   D18       -0.86421  -0.00110  -0.10469  -0.04361  -0.13831  -1.00252
   D19       -0.83348   0.00009   0.05855   0.00879   0.06110  -0.77238
   D20       -3.06503  -0.00082  -0.10906  -0.05062  -0.15068   3.06748
   D21       -3.03430   0.00037   0.05419   0.00179   0.04874  -2.98556
   D22        0.06494   0.00012   0.01644   0.01422   0.03077   0.09571
   D23       -1.35023   0.00139   0.19623   0.10398   0.30305  -1.04718
   D24       -1.05227   0.00052  -0.06961  -0.05074  -0.09794  -1.15021
   D25       -0.38151  -0.00105  -0.13049  -0.08082  -0.20238  -0.58388
   D26        2.20695   0.00164   0.11515   0.11559   0.24131   2.44826
   D27        2.87771   0.00006   0.05427   0.08551   0.13688   3.01459
   D28        2.06485   0.00023  -0.10211  -0.02955  -0.12843   1.93642
   D29       -2.21982   0.00007  -0.11307  -0.03039  -0.13801  -2.35783
         Item               Value     Threshold  Converged?
 Maximum Force            0.005455     0.000450     NO 
 RMS     Force            0.001510     0.000300     NO 
 Maximum Displacement     0.354486     0.001800     NO 
 RMS     Displacement     0.096723     0.001200     NO 
 Predicted change in Energy=-1.731341D-03
 GradGradGradGradGradGradGradGradGradGradGradGradGradGradGradGradGradGrad

                          Input orientation:                          
 ---------------------------------------------------------------------
 Center     Atomic      Atomic             Coordinates (Angstroms)
 Number     Number       Type             X           Y           Z
 ---------------------------------------------------------------------
      1          1           0       -0.492173    1.323444   -0.164065
      2          1           0       -2.163900   -1.146669   -0.843103
      3          1           0        1.572386   -0.353596    0.735645
      4          7           0        1.590664   -1.101961    0.024080
      5          1           0        1.567271   -0.643452   -0.894795
      6          1           0        2.473054   -1.631741    0.093602
      7          7           0        0.215706    2.008639    0.085073
      8          1           0       -0.071231    2.892981    0.452213
      9          7           0       -1.688442   -0.711052   -0.035336
     10          1           0       -2.289413   -0.902635    0.781111
     11          1           0       -0.784422   -1.203465    0.115486
     12          1           0        1.094368    1.972948   -0.389033
 ---------------------------------------------------------------------
                    Distance matrix (angstroms):
                    1          2          3          4          5
     1  H    0.000000
     2  H    3.058957   0.000000
     3  H    2.807908   4.132947   0.000000
     4  N    3.202530   3.853668   1.032816   0.000000
     5  H    2.940061   3.765306   1.656013   1.027185   0.000000
     6  H    4.194291   4.755423   1.690289   1.031558   1.665559
     7  N    1.016196   4.059556   2.800710   3.401479   3.133761
     8  H    1.737940   4.730314   3.649942   4.347960   4.123770
     9  N    2.363641   1.033592   3.369746   3.302859   3.367923
    10  H    3.013114   1.647234   3.900898   3.958261   4.213057
    11  H    2.559067   1.680796   2.580974   2.379011   2.620065
    12  H    1.729040   4.533707   2.627967   3.141979   2.706470
                    6          7          8          9         10
     6  H    0.000000
     7  N    4.283463   0.000000
     8  H    5.203374   0.999593   0.000000
     9  N    4.264075   3.322197   3.980216   0.000000
    10  H    4.866761   3.903281   4.408537   1.031725   0.000000
    11  H    3.285583   3.364341   4.171678   1.040417   1.672888
    12  H    3.889408   0.999049   1.706687   3.882394   4.592188
                   11         12
    11  H    0.000000
    12  H    3.724781   0.000000
 Stoichiometry    H9N3
 Framework group  C1[X(H9N3)]
 Deg. of freedom    30
 Full point group                 C1      NOp   1
 Largest Abelian subgroup         C1      NOp   1
 Largest concise Abelian subgroup C1      NOp   1
                         Standard orientation:                         
 ---------------------------------------------------------------------
 Center     Atomic      Atomic             Coordinates (Angstroms)
 Number     Number       Type             X           Y           Z
 ---------------------------------------------------------------------
      1          1           0        0.627867    1.225137   -0.212989
      2          1           0       -2.359990    0.946332   -0.806448
      3          1           0        0.661549   -1.421064    0.725538
      4          7           0        0.074610   -1.919313    0.037091
      5          1           0        0.389438   -1.624717   -0.895221
      6          1           0        0.225067   -2.936656    0.117639
      7          7           0        1.612869    1.114354    0.010958
      8          1           0        2.125563    1.901528    0.352554
      9          7           0       -1.699918    0.865861   -0.015158
     10          1           0       -2.206181    1.222032    0.810250
     11          1           0       -1.504636   -0.143376    0.145382
     12          1           0        2.128396    0.404466   -0.466942
 ---------------------------------------------------------------------
 Rotational constants (GHZ):           4.9517368           4.8278594           2.5201002
 Standard basis: 6-311+G(2d,p) (5D, 7F)
 There are   141 symmetry adapted cartesian basis functions of A   symmetry.
 There are   135 symmetry adapted basis functions of A   symmetry.
   135 basis functions,   198 primitive gaussians,   141 cartesian basis functions
    15 alpha electrons       15 beta electrons
       nuclear repulsion energy        82.1810255481 Hartrees.
 NAtoms=   12 NActive=   12 NUniq=   12 SFac= 1.00D+00 NAtFMM=   60 NAOKFM=F Big=F
 Integral buffers will be    131072 words long.
 Raffenetti 2 integral format.
 Two-electron integral symmetry is turned on.
 One-electron integrals computed using PRISM.
 NBasis=   135 RedAO= T EigKep=  2.07D-03  NBF=   135
 NBsUse=   135 1.00D-06 EigRej= -1.00D+00 NBFU=   135
 Initial guess from the checkpoint file:  "NH3-3-molecules_1.chk"
 B after Tr=    -0.000000    0.000000    0.000000
         Rot=    0.953186    0.002333   -0.001467    0.302373 Ang=  35.20 deg.
 ExpMin= 6.39D-02 ExpMax= 6.29D+03 ExpMxC= 9.49D+02 IAcc=3 IRadAn=         5 AccDes= 0.00D+00
 Harris functional with IExCor=  402 and IRadAn=       5 diagonalized for initial guess.
 HarFok:  IExCor=  402 AccDes= 0.00D+00 IRadAn=         5 IDoV= 1 UseB2=F ITyADJ=14
 ICtDFT=  3500011 ScaDFX=  1.000000  1.000000  1.000000  1.000000
 FoFCou: FMM=F IPFlag=           0 FMFlag=      100000 FMFlg1=           0
         NFxFlg=           0 DoJE=T BraDBF=F KetDBF=T FulRan=T
         wScrn=  0.000000 ICntrl=       500 IOpCl=  0 I1Cent=   200000004 NGrid=           0
         NMat0=    1 NMatS0=      1 NMatT0=    0 NMatD0=    1 NMtDS0=    0 NMtDT0=    0
 Petite list used in FoFCou.
 Keep R1 ints in memory in canonical form, NReq=46014806.
 Requested convergence on RMS density matrix=1.00D-08 within  32 cycles.
 Requested convergence on MAX density matrix=1.00D-06.
 Requested convergence on             energy=1.00D-06.
 No special actions if energy rises.
 Integral accuracy reduced to 1.0D-05 until final iterations.
 Initial convergence to 1.0D-05 achieved.  Increase integral accuracy.
 SCF Done:  E(RB3LYP) =  -169.754064649     A.U. after   11 cycles
            NFock= 11  Conv=0.50D-08     -V/T= 2.0053
 QCSCF skips out because SCF is already converged.
 Calling FoFJK, ICntrl=      2127 FMM=F ISym2X=0 I1Cent= 0 IOpClX= 0 NMat=1 NMatS=1 NMatT=0.
 ***** Axes restored to original set *****
 -------------------------------------------------------------------
 Center     Atomic                   Forces (Hartrees/Bohr)
 Number     Number              X              Y              Z
 -------------------------------------------------------------------
      1        1           0.001611811    0.006238381    0.000093848
      2        1           0.008542325    0.004661162    0.010761265
      3        1           0.002756612   -0.009561214   -0.009532353
      4        7           0.005351948    0.004759120    0.000221030
      5        1           0.002228879   -0.004673734    0.009026258
      6        1          -0.011436496    0.009428986    0.000291624
      7        7          -0.000037683   -0.013556616    0.010044259
      8        1          -0.002535469    0.003152034   -0.003496045
      9        7          -0.001497217   -0.012172340    0.000682104
     10        1           0.008747332    0.002559250   -0.009215869
     11        1          -0.014242736    0.005508487   -0.003179303
     12        1           0.000510693    0.003656487   -0.005696818
 -------------------------------------------------------------------
 Cartesian Forces:  Max     0.014242736 RMS     0.006957884

 GradGradGradGradGradGradGradGradGradGradGradGradGradGradGradGradGradGrad
 Berny optimization.
 Using GEDIIS/GDIIS optimizer.
 FormGI is forming the generalized inverse of G from B-inverse, IUseBI=4.
 Internal  Forces:  Max     0.014904178 RMS     0.004250647
 Search for a local minimum.
 Step number   4 out of a maximum of   76
 All quantities printed in internal units (Hartrees-Bohrs-Radians)
 Mixed Optimization -- RFO/linear search
 Update second derivatives using D2CorX and points    3    4
 DE= -2.57D-03 DEPred=-1.73D-03 R= 1.48D+00
 TightC=F SS=  1.41D+00  RLast= 1.18D+00 DXNew= 1.4270D+00 3.5314D+00
 Trust test= 1.48D+00 RLast= 1.18D+00 DXMaxT set to 1.43D+00
 ITU=  1  1  1  0
 Use linear search instead of GDIIS.
     Eigenvalues ---    0.00054   0.00476   0.00884   0.01300   0.02006
     Eigenvalues ---    0.02081   0.02374   0.02838   0.03753   0.03990
     Eigenvalues ---    0.06807   0.07869   0.08509   0.09235   0.10013
     Eigenvalues ---    0.10153   0.11199   0.12125   0.13956   0.14095
     Eigenvalues ---    0.14812   0.41207   0.42321   0.43136   0.44841
     Eigenvalues ---    0.46151   0.46477   0.46495   0.47777   1.59123
 RFO step:  Lambda=-2.11598621D-03 EMin= 5.41717445D-04
 Quartic linear search produced a step of  0.48558.
 Iteration  1 RMS(Cart)=  0.05583767 RMS(Int)=  0.02962537
 Iteration  2 RMS(Cart)=  0.02077752 RMS(Int)=  0.01020693
 Iteration  3 RMS(Cart)=  0.00054069 RMS(Int)=  0.01018881
 Iteration  4 RMS(Cart)=  0.00000877 RMS(Int)=  0.01018880
 Iteration  5 RMS(Cart)=  0.00000029 RMS(Int)=  0.01018880
 Variable       Old X    -DE/DX   Delta X   Delta X   Delta X     New X
                                 (Linear)    (Quad)   (Total)
    R1        1.92033  -0.00652   0.00550   0.00354   0.00693   1.92726
    R2        4.46663  -0.00092  -0.01984  -0.02380  -0.03497   4.43167
    R3        4.83594  -0.00122   0.05941   0.00780   0.05437   4.89030
    R4        1.95320  -0.01430   0.01080  -0.00056   0.01024   1.96345
    R5        1.95174  -0.01173   0.01000  -0.00191   0.01078   1.96252
    R6        4.96614   0.00050   0.15237   0.08755   0.23701   5.20315
    R7        1.94110  -0.00916   0.00651  -0.00107   0.00479   1.94588
    R8        1.94936  -0.01461   0.00947  -0.00095   0.00852   1.95788
    R9        4.49568  -0.00071  -0.03746  -0.02010  -0.05749   4.43819
   R10        5.11449  -0.00076   0.20394   0.11967   0.32529   5.43978
   R11        1.88896   0.00223   0.00015   0.00262   0.00277   1.89172
   R12        1.88793   0.00270   0.00022   0.00292   0.00716   1.89509
   R13        1.94968  -0.01286   0.01018   0.00022   0.01040   1.96007
   R14        1.96610  -0.01490   0.01568  -0.00576   0.02127   1.98737
    A1        2.73781  -0.00146   0.05801   0.02432   0.07076   2.80857
    A2        2.37254   0.00154   0.01426   0.01595   0.03658   2.40912
    A3        1.92820   0.00139   0.02187   0.01507   0.03457   1.96278
    A4        1.86761   0.00099   0.00361  -0.00046   0.00294   1.87054
    A5        1.91860  -0.00173   0.01184   0.00095   0.01253   1.93113
    A6        1.55757   0.00118  -0.00405   0.00205  -0.00784   1.54974
    A7        1.88495  -0.00098   0.00438   0.00033   0.00604   1.89099
    A8        1.60148   0.00028   0.01244   0.01034   0.01915   1.62063
    A9        2.54898   0.00090  -0.02377  -0.01144  -0.02872   2.52025
   A10        1.84246   0.00071  -0.00795  -0.00486  -0.01626   1.82620
   A11        2.07901  -0.00064  -0.00661  -0.02077  -0.04878   2.03023
   A12        2.06261  -0.00112  -0.01918  -0.03130  -0.08184   1.98077
   A13        2.04696   0.00024  -0.01724  -0.02262  -0.07031   1.97664
   A14        2.15678   0.00027   0.02600   0.01867   0.03987   2.19666
   A15        2.09179  -0.00093  -0.04786  -0.02854  -0.06990   2.02189
   A16        1.84651   0.00127  -0.00713   0.00200  -0.00644   1.84007
   A17        1.88969  -0.00234   0.00670  -0.00437   0.01001   1.89970
   A18        1.87919  -0.00200   0.00066  -0.00299  -0.00342   1.87577
   A19        1.40976  -0.00142   0.02316   0.00564   0.02215   1.43191
   A20        2.57123  -0.00120  -0.02275  -0.01414  -0.04153   2.52970
   A21        0.63064  -0.00324  -0.02135  -0.01431  -0.03222   0.59843
   A22        1.55931  -0.00058  -0.06432  -0.04831  -0.10628   1.45303
   A23        1.85136  -0.00188   0.00159  -0.01105  -0.02195   1.82940
    D1       -2.01897  -0.00285  -0.22262  -0.14794  -0.37772  -2.39669
    D2        1.58804   0.00057  -0.05407   0.03030  -0.04117   1.54688
    D3       -2.40734  -0.00017  -0.15308  -0.12629  -0.25280  -2.66014
    D4        1.19967   0.00326   0.01547   0.05194   0.08376   1.28343
    D5       -2.64412   0.00151   0.15347   0.04429   0.20578  -2.43834
    D6        1.20857   0.00004   0.21011   0.05745   0.26906   1.47763
    D7       -0.50856  -0.00205   0.08615   0.02185   0.08495  -0.42361
    D8        0.15947   0.00097   0.02705   0.02686   0.05731   0.21678
    D9        2.20220  -0.00055   0.04016   0.02750   0.07297   2.27517
   D10       -1.43937   0.00032   0.01529   0.01543   0.03970  -1.39968
   D11       -0.09789  -0.00055  -0.01582  -0.01599  -0.03297  -0.13086
   D12        1.97966  -0.00064   0.08762   0.05046   0.14266   2.12232
   D13       -0.15051  -0.00090  -0.02353  -0.02340  -0.04728  -0.19779
   D14       -2.21529   0.00111  -0.04139  -0.02444  -0.06687  -2.28216
   D15        1.41584   0.00045  -0.02394  -0.01811  -0.04948   1.36636
   D16        0.86483  -0.00029  -0.06367  -0.03605  -0.08946   0.77537
   D17        1.09497   0.00006   0.03316  -0.00839   0.01960   1.11457
   D18       -1.00252  -0.00131  -0.06716  -0.03560  -0.09200  -1.09453
   D19       -0.77238  -0.00096   0.02967  -0.00794   0.01706  -0.75532
   D20        3.06748  -0.00078  -0.07317  -0.04256  -0.10699   2.96049
   D21       -2.98556  -0.00044   0.02367  -0.01490   0.00207  -2.98349
   D22        0.09571   0.00038   0.01494   0.01492   0.03032   0.12603
   D23       -1.04718   0.00147   0.14715   0.10400   0.25056  -0.79662
   D24       -1.15021   0.00054  -0.04756  -0.03446  -0.05892  -1.20913
   D25       -0.58388  -0.00259  -0.09827  -0.07240  -0.15598  -0.73986
   D26        2.44826   0.00413   0.11718   0.13995   0.26121   2.70948
   D27        3.01459   0.00100   0.06647   0.10201   0.16416  -3.10444
   D28        1.93642   0.00067  -0.06236  -0.00565  -0.06222   1.87420
   D29       -2.35783  -0.00002  -0.06702  -0.00699  -0.06651  -2.42434
         Item               Value     Threshold  Converged?
 Maximum Force            0.014904     0.000450     NO 
 RMS     Force            0.004251     0.000300     NO 
 Maximum Displacement     0.258453     0.001800     NO 
 RMS     Displacement     0.071421     0.001200     NO 
 Predicted change in Energy=-1.907060D-03
 GradGradGradGradGradGradGradGradGradGradGradGradGradGradGradGradGradGrad

                          Input orientation:                          
 ---------------------------------------------------------------------
 Center     Atomic      Atomic             Coordinates (Angstroms)
 Number     Number       Type             X           Y           Z
 ---------------------------------------------------------------------
      1          1           0       -0.487979    1.339337   -0.027297
      2          1           0       -2.113436   -1.125320   -0.874230
      3          1           0        1.578424   -0.368298    0.703796
      4          7           0        1.592212   -1.150720    0.021041
      5          1           0        1.582069   -0.733164   -0.920161
      6          1           0        2.459986   -1.707806    0.121317
      7          7           0        0.220681    2.043631    0.177374
      8          1           0       -0.115313    2.960627    0.397240
      9          7           0       -1.641843   -0.702161   -0.050771
     10          1           0       -2.280315   -0.869924    0.749259
     11          1           0       -0.752069   -1.229592    0.139314
     12          1           0        0.981450    2.046830   -0.476003
 ---------------------------------------------------------------------
                    Distance matrix (angstroms):
                    1          2          3          4          5
     1  H    0.000000
     2  H    3.071471   0.000000
     3  H    2.778585   4.085716   0.000000
     4  N    3.244983   3.812346   1.038522   0.000000
     5  H    3.062282   3.716538   1.664445   1.029717   0.000000
     6  H    4.242365   4.716629   1.706082   1.036065   1.674916
     7  N    1.019863   4.073847   2.817443   3.479859   3.281548
     8  H    1.716885   4.722721   3.747594   4.467700   4.273260
     9  N    2.345136   1.039013   3.324298   3.265804   3.339223
    10  H    2.948955   1.651905   3.891473   3.950395   4.209950
    11  H    2.587836   1.700430   2.547874   2.348588   2.610963
    12  H    1.691481   4.449656   2.753388   3.293085   2.878609
                    6          7          8          9         10
     6  H    0.000000
     7  N    4.369315   0.000000
     8  H    5.338779   1.001057   0.000000
     9  N    4.226812   3.325721   3.993373   0.000000
    10  H    4.854566   3.882118   4.414099   1.037226   0.000000
    11  H    3.247508   3.414921   4.246166   1.051672   1.684319
    12  H    4.079234   1.002837   1.673459   3.823537   4.543988
                   11         12
    11  H    0.000000
    12  H    3.757478   0.000000
 Stoichiometry    H9N3
 Framework group  C1[X(H9N3)]
 Deg. of freedom    30
 Full point group                 C1      NOp   1
 Largest Abelian subgroup         C1      NOp   1
 Largest concise Abelian subgroup C1      NOp   1
                         Standard orientation:                         
[...]
 ! Name  Definition              Value          Derivative Info.                !
 --------------------------------------------------------------------------------
 ! R1    R(1,7)                  1.0233         -DE/DX =    0.0                 !
 ! R2    R(1,9)                  2.2395         -DE/DX =    0.0                 !
 ! R3    R(1,11)                 2.3892         -DE/DX =    0.0                 !
 ! R4    R(2,9)                  1.0155         -DE/DX =    0.0                 !
 ! R5    R(3,4)                  1.0233         -DE/DX =    0.0                 !
 ! R6    R(3,12)                 2.9125         -DE/DX =    0.0                 !
 ! R7    R(4,5)                  1.0155         -DE/DX =    0.0                 !
 ! R8    R(4,6)                  1.0155         -DE/DX =    0.0                 !
 ! R9    R(4,11)                 2.2396         -DE/DX =    0.0                 !
 ! R10   R(5,12)                 4.2256         -DE/DX =    0.0                 !
 ! R11   R(7,8)                  1.0155         -DE/DX =    0.0                 !
 ! R12   R(7,12)                 1.0155         -DE/DX =    0.0                 !
 ! R13   R(9,10)                 1.0155         -DE/DX =    0.0                 !
 ! R14   R(9,11)                 1.0233         -DE/DX =    0.0                 !
 ! A1    A(7,1,9)              154.4353         -DE/DX =    0.0                 !
 ! A2    A(7,1,11)             129.1567         -DE/DX =    0.0                 !
 ! A3    A(4,3,12)             154.3721         -DE/DX =    0.0                 !
 ! A4    A(3,4,5)              107.6533         -DE/DX =    0.0                 !
 ! A5    A(3,4,6)              107.6537         -DE/DX =    0.0                 !
 ! A6    A(3,4,11)              85.5637         -DE/DX =    0.0                 !
 ! A7    A(5,4,6)              106.7687         -DE/DX =    0.0                 !
 ! A8    A(5,4,11)             122.3787         -DE/DX =    0.0                 !
 ! A9    A(6,4,11)             122.3787         -DE/DX =    0.0                 !
 ! A10   A(4,5,12)              62.3466         -DE/DX =    0.0                 !
 ! A11   A(1,7,8)              107.6534         -DE/DX =    0.0                 !
 ! A12   A(1,7,12)             107.6532         -DE/DX =    0.0                 !
 ! A13   A(8,7,12)             106.7684         -DE/DX =    0.0                 !
 ! A14   A(1,9,2)              122.3777         -DE/DX =    0.0                 !
 ! A15   A(1,9,10)             122.3776         -DE/DX =    0.0                 !
 ! A16   A(2,9,10)             106.7695         -DE/DX =    0.0                 !
 ! A17   A(2,9,11)             107.6537         -DE/DX =    0.0                 !
 ! A18   A(10,9,11)            107.6536         -DE/DX =    0.0                 !
 ! A19   A(1,11,4)              85.2774         -DE/DX =    0.0                 !
 ! A20   A(4,11,9)             154.4334         -DE/DX =    0.0                 !
 ! A21   A(3,12,5)              16.2584         -DE/DX =    0.0                 !
 ! A22   A(3,12,7)              40.496          -DE/DX =    0.0                 !
 ! A23   A(5,12,7)              56.1874         -DE/DX =    0.0                 !
 ! D1    D(9,1,7,8)           -122.6143         -DE/DX =    0.0                 !
 ! D2    D(9,1,7,12)           122.6141         -DE/DX =    0.0                 !
 ! D3    D(11,1,7,8)          -122.6144         -DE/DX =    0.0                 !
 ! D4    D(11,1,7,12)          122.6141         -DE/DX =    0.0                 !
 ! D5    D(7,1,9,2)           -108.1191         -DE/DX =    0.0                 !
 ! D6    D(7,1,9,10)           108.1187         -DE/DX =    0.0                 !
 ! D7    D(7,1,11,4)            -0.0001         -DE/DX =    0.0                 !
 ! D8    D(12,3,4,5)            82.293          -DE/DX =    0.0                 !
 ! D9    D(12,3,4,6)          -162.9349         -DE/DX =    0.0                 !
 ! D10   D(12,3,4,11)          -40.321          -DE/DX =    0.0                 !
 ! D11   D(4,3,12,5)           -54.1534         -DE/DX =    0.0                 !
 ! D12   D(4,3,12,7)           108.5221         -DE/DX =    0.0                 !
 ! D13   D(3,4,5,12)           -19.4824         -DE/DX =    0.0                 !
 ! D14   D(6,4,5,12)          -134.8407         -DE/DX =    0.0                 !
 ! D15   D(11,4,5,12)           76.584          -DE/DX =    0.0                 !
 ! D16   D(3,4,11,1)             0.0001         -DE/DX =    0.0                 !
 ! D17   D(3,4,11,9)             0.0001         -DE/DX =    0.0                 !
 ! D18   D(5,4,11,1)          -108.1175         -DE/DX =    0.0                 !
 ! D19   D(5,4,11,9)          -108.1176         -DE/DX =    0.0                 !
 ! D20   D(6,4,11,1)           108.1182         -DE/DX =    0.0                 !
 ! D21   D(6,4,11,9)           108.1181         -DE/DX =    0.0                 !
 ! D22   D(4,5,12,3)            23.5057         -DE/DX =    0.0                 !
 ! D23   D(4,5,12,7)            10.0469         -DE/DX =    0.0                 !
 ! D24   D(1,7,12,3)           -96.069          -DE/DX =    0.0                 !
 ! D25   D(1,7,12,5)           -90.3101         -DE/DX =    0.0                 !
 ! D26   D(8,7,12,3)           148.5733         -DE/DX =    0.0                 !
 ! D27   D(8,7,12,5)           154.3321         -DE/DX =    0.0                 !
 ! D28   D(2,9,11,4)           122.6135         -DE/DX =    0.0                 !
 ! D29   D(10,9,11,4)         -122.6133         -DE/DX =    0.0                 !
 --------------------------------------------------------------------------------
 GradGradGradGradGradGradGradGradGradGradGradGradGradGradGradGradGradGrad


 ----------------------------------------------------------------------

 Electric dipole moment (input orientation):
 (Debye = 10**-18 statcoulomb cm , SI units = C m)
                  (au)            (Debye)         (10**-30 SI)
   Tot        0.193649D-02      0.492207D-02      0.164183D-01
   x          0.356707D-03      0.906658D-03      0.302429D-02
   y         -0.189499D-02     -0.481659D-02     -0.160664D-01
   z          0.178244D-03      0.453051D-03      0.151121D-02

 Dipole polarizability, Alpha (input orientation).
 (esu units = cm**3 , SI units = C**2 m**2 J**-1)
 Alpha(0;0):
               (au)            (10**-24 esu)      (10**-40 SI)
   iso        0.401158D+02      0.594455D+01      0.661420D+01
   aniso      0.975839D+01      0.144604D+01      0.160894D+01
   xx         0.433742D+02      0.642739D+01      0.715144D+01
   yx        -0.328103D-02     -0.486199D-03     -0.540969D-03
   yy         0.433526D+02      0.642420D+01      0.714788D+01
   zx         0.224432D-01      0.332574D-02      0.370038D-02
   zy         0.316892D+00      0.469586D-01      0.522485D-01
   zz         0.336206D+02      0.498205D+01      0.554328D+01

 ----------------------------------------------------------------------

 Dipole orientation:
     1         -0.52534387          0.21225502         -2.55233115
     1         -3.89527069         -2.46670656          0.87444689
     1          2.65264479          0.42938957          0.64734552
     7          2.48323350          0.15522572          2.55410548
     1          3.69318180         -1.24941978          3.04999557
     1          3.09813024          1.74943956          3.42782512
     7          1.19513141          0.64502748         -3.32177815
     1          1.01074437          2.30777588         -4.26199811
     7         -3.16701532         -0.70931146          0.62107748
     1         -4.48485300          0.53264200          1.25656347
     1         -1.61277045         -0.54898145          1.76047798
     1          1.59755304         -0.69318711         -4.63711115

 Electric dipole moment (dipole orientation):
 (Debye = 10**-18 statcoulomb cm , SI units = C m)
                  (au)            (Debye)         (10**-30 SI)
   Tot        0.193649D-02      0.492207D-02      0.164183D-01
   x          0.000000D+00      0.000000D+00      0.000000D+00
   y          0.000000D+00      0.000000D+00      0.000000D+00
   z          0.193649D-02      0.492207D-02      0.164183D-01

 Dipole polarizability, Alpha (dipole orientation).
 (esu units = cm**3 , SI units = C**2 m**2 J**-1)
 Alpha(0;0):
               (au)            (10**-24 esu)      (10**-40 SI)
   iso        0.401158D+02      0.594455D+01      0.661420D+01
   aniso      0.975839D+01      0.144604D+01      0.160894D+01
   xx         0.430143D+02      0.637407D+01      0.709210D+01
   yx         0.182182D+01      0.269965D+00      0.300377D+00
   yy         0.341173D+02      0.505566D+01      0.562518D+01
   zx         0.235040D+00      0.348293D-01      0.387528D-01
   zy        -0.117096D+01     -0.173518D+00     -0.193064D+00
   zz         0.432158D+02      0.640392D+01      0.712532D+01

 ----------------------------------------------------------------------
 1\1\GINC-OFFICE-MAC-PRO\Freq\RB3LYP\6-311+G(2d,p)\H9N3\ROOT\09-Mar-202
 6\0\\#N Geom=AllCheck Guess=TCheck SCRF=Check GenChk RB3LYP/6-311+G(2d
 ,p) Freq\\Title Card Required\\0,1\H,-0.499613024,1.2896311416,0.03680
 28366\H,-2.127464741,-0.9537660562,-0.855063295\H,1.4607110431,-0.0755
 439387,-0.0046842261\N,1.5357634518,-1.0955929298,-0.0372683586\H,2.08
 17924373,-1.33821002,-0.8584317815\H,2.0754589647,-1.3904645832,0.7708
 931389\N,0.3453343067,1.8665521464,0.0557252814\H,0.3043798928,2.44565
 44318,0.8889339822\N,-1.6252567632,-0.6444572169,-0.0283485408\H,-2.13
 05333232,-1.0077310061,0.7741906512\H,-0.703272231,-1.088276216,-0.041
 3271996\H,0.3065679862,2.495645247,-0.7405444887\\Version=EM64M-G16Rev
 B.01\State=1-A\HF=-169.7669451\RMSD=8.889e-10\RMSF=1.475e-05\ZeroPoint
 =0.1092009\Thermal=0.1182686\Dipole=0.0003567,-0.001895,0.0001782\Dipo
 leDeriv=0.2288664,0.0967744,0.0033792,0.1168976,0.4481947,0.010314,0.0
 039916,0.0102728,0.1310752,0.127103,-0.0502655,-0.0337334,-0.0779115,0
 .1929003,-0.0986069,-0.0575945,-0.0797803,0.089449,0.300729,-0.1585001
 ,-0.0046195,-0.1384341,0.3753158,0.0075506,-0.0039401,0.0074388,0.1310
 928,-0.6546421,-0.0335227,-0.0019917,0.003166,-0.6491695,-0.0105951,-0
 .0007633,-0.0107686,-0.3224475,0.1143339,0.0697853,0.1065858,0.0414366
 ,0.1980257,0.0262396,0.1007635,-0.0027999,0.097185,0.1160606,0.0763897
 ,-0.1016203,0.0480168,0.1990704,-0.0193454,-0.0977444,0.0099897,0.0944
 235,-0.6646935,-0.009218,-0.0008582,0.0275493,-0.6400448,-0.0099775,0.
 0003557,-0.0100347,-0.3225194,0.2287241,0.0191017,0.0729016,-0.0085585
 ,0.0901438,-0.0788662,0.0443093,-0.0892387,0.0906858,-0.6384122,-0.012
 6384,-0.0009774,0.0241838,-0.6661034,-0.0112127,0.0002497,-0.0113639,-
 0.3224124,0.1267641,-0.0527404,0.0304813,-0.0819824,0.1806532,0.104389
 ,0.0524305,0.0856472,0.1019955,0.4861109,0.0315317,0.0016847,0.051644,
 0.191026,0.002045,0.0023348,0.0020161,0.1308656,0.2290559,0.0233023,-0
 .0712321,-0.0060076,0.0799878,0.0780656,-0.0443929,0.0886214,0.1006069
 \Polar=43.3741928,-0.003281,43.3526408,0.0224432,0.3168923,33.6205679\
 Quadrupole=-0.2361568,-0.2308007,0.4669575,-0.0042291,-0.0001984,-0.02
 82167\PG=C01 [X(H9N3)]\NImag=0\\0.28625125,0.18177650,0.16231443,0.005
 87428,0.00315486,0.06741502,-0.00024868,0.00033908,-0.00028626,0.15345
 280,0.00019749,0.00160009,-0.00185033,0.05752297,0.05296994,-0.0003127
 9,-0.00051069,0.00019616,0.15952656,0.09626483,0.32092697,-0.00327481,
 0.00275466,0.00008200,0.00034772,0.00004326,0.00001775,0.03568585,0.00
 125260,0.00113823,0.00001743,0.00011271,0.00001863,-0.00005717,-0.0363
 9476,0.41260240,0.00003596,0.00001845,0.00066256,-0.00014985,-0.000163
 31,0.00004120,-0.00129164,0.01096251,0.06765235,0.00031298,-0.00159408
 ,-0.00004888,-0.00088317,0.00015185,0.00015416,-0.02059917,0.04677002,
 0.00168188,0.30603362,-0.00061185,-0.00060845,-0.00000026,0.00049628,-
 0.00016764,0.00023035,-0.00298643,-0.39958955,-0.01079816,-0.16676803,
 0.54829675,-0.00002051,0.00000042,-0.00062381,0.00110881,-0.00019078,-
 0.00012032,0.00007941,-0.01059779,-0.06503183,-0.00668923,-0.00347756,
 0.63836270,0.00016183,-0.00016055,0.00021259,-0.00066478,0.00008787,0.
 00003858,-0.00517592,-0.00409138,0.00176255,-0.14176862,0.07725640,0.1
 9170234,0.13887198,-0.00021938,0.00019840,-0.00004803,-0.00016595,0.00
 016315,-0.00004720,0.02180409,-0.00600044,-0.03603950,0.05369432,-0.06
 646842,-0.05230324,-0.06728564,0.07097395,0.00003499,0.00004547,0.0000
 4903,-0.00015411,-0.00001337,0.00001266,0.00147660,0.00161831,-0.00057
 121,0.14967489,-0.06944746,-0.29049029,-0.17248887,0.07652402,0.317535
 90,0.00016267,-0.00014280,-0.00022382,0.00006579,-0.00003518,-0.000056
 31,-0.00515113,-0.00395065,-0.00207285,-0.13915404,0.08874455,-0.18520
 394,0.00830145,-0.00838475,0.02143320,0.13623504,-0.00021385,0.0001964
 9,0.00005758,0.00009328,-0.00003919,-0.00004873,0.02158503,-0.00820418
 ,0.03572655,0.06267041,-0.07520325,0.06665396,-0.00692634,0.00265000,-
 0.00885701,-0.07749814,0.08181814,-0.00004759,-0.00003749,0.00004876,-
 0.00000369,0.00001211,0.00000611,-0.00013202,-0.00213682,0.00159160,-0
 .14477312,0.08399105,-0.28433140,-0.02165477,0.01067206,-0.02651943,0.
 16645622,-0.09230291,0.30930678,-0.28534750,-0.15062013,-0.00493314,0.
 00000364,-0.00045746,0.00033173,-0.00276707,-0.00045993,-0.00001242,0.
 00155230,0.00180055,0.00005494,-0.00004439,-0.00004286,-0.00027646,-0.
 00004914,-0.00005612,0.00027318,0.34221604,-0.20037725,-0.13513919,-0.
 00244393,-0.00013570,-0.00101503,0.00030575,-0.00269985,0.00050001,0.0
 0017009,0.00296447,-0.00402361,-0.00025140,0.00033542,-0.00103281,-0.0
 0001289,0.00031154,-0.00096176,-0.00004035,0.18799499,0.51204293,-0.00
 645439,-0.00236925,-0.06477443,0.00026426,0.00114631,-0.00019640,-0.00
 008796,0.00017986,-0.00499202,0.00008962,-0.00025450,0.00392303,-0.000
 36734,0.00100568,-0.00009262,0.00039303,-0.00106728,-0.00015697,0.0053
 8886,-0.00357533,0.63852657,0.00110632,-0.01715037,-0.03064031,-0.0000
 3865,0.00009559,-0.00001203,0.00085442,-0.00087146,0.00145824,-0.00047
 437,0.00075018,-0.00085564,0.00000932,-0.00012399,0.00006467,-0.000080
 58,0.00050845,-0.00001035,-0.02689792,0.00654264,0.04364104,0.02870130
 ,0.00760348,-0.01271512,-0.02007881,-0.00003495,0.00006305,0.00000335,
 -0.00097442,0.00047041,-0.00118810,0.00040634,-0.00052526,0.00080558,0
 .00000749,0.00001245,-0.00002318,0.00025100,-0.00042375,-0.00007125,-0
 .01714162,-0.17329517,-0.18952831,0.00943208,0.17350970,0.00222951,-0.
 00019469,-0.00013096,0.00001280,-0.00006921,0.00000529,0.00029163,-0.0
 0054724,0.00022154,-0.00010135,0.00045766,-0.00020578,-0.00000899,-0.0
 0001191,0.00000651,-0.00008123,0.00010480,0.00001621,0.00728991,-0.162
 47099,-0.29857335,-0.01204500,0.18482664,0.32519843,-0.00167148,0.0033
 3644,0.00011525,-0.14850954,-0.07320581,-0.14227557,0.00057279,0.00045
 765,0.00001736,-0.00471346,0.00180992,0.00005081,-0.00097232,-0.000421
 90,-0.00047865,-0.00097582,-0.00044924,0.00044118,-0.00057609,-0.00420
 235,-0.00014671,-0.00064540,-0.00066745,-0.00014613,0.63217394,0.00109
 416,-0.00059896,0.00014998,-0.04828774,-0.05486238,-0.08173730,0.00144
 526,-0.00087323,-0.00000404,0.00064857,0.00223058,-0.00005685,-0.00008
 162,0.00001727,0.00014296,-0.00015599,0.00000037,-0.00012644,-0.003038
 50,-0.00190592,-0.00019969,-0.00031806,-0.00043910,0.00023631,-0.02079
 366,0.22243995,0.00004112,0.00015034,-0.00500194,-0.14708513,-0.126130
 43,-0.29531127,0.00004812,-0.00000765,-0.00062155,0.00000406,-0.000052
 13,0.00393605,-0.00115074,-0.00034526,-0.00025579,0.00114756,0.0003594
 2,-0.00023450,-0.00010277,-0.00019164,0.00393171,0.00069826,0.00083673
 ,-0.00008836,-0.00070805,-0.01382139,0.63798707,-0.00025122,0.00031782
 ,0.00030550,0.01069443,0.00688113,-0.01892742,0.00034854,0.00010271,0.
 00015823,-0.00087767,0.00056883,-0.00107190,0.00006180,0.00009233,0.00
 000894,-0.00066593,-0.00017526,0.00013846,0.00000610,-0.00011786,-0.00
 027219,-0.00000974,-0.00020888,0.00005703,-0.14958702,-0.05826638,0.14
 407642,0.15464278,0.00017140,0.00144023,0.00193007,0.00566123,0.000253
 95,-0.01291312,0.00004407,0.00000349,0.00016062,0.00016159,-0.00016458
 ,0.00018914,-0.00003853,-0.00004089,-0.00001562,0.00009002,0.00015886,
 0.00002341,-0.00043392,-0.00092012,-0.00119426,-0.00046504,-0.00048935
 ,-0.00001010,-0.08297817,-0.06962232,0.14076647,0.06836636,0.06683744,
 0.00032335,0.00059462,0.00035842,0.01948369,0.01471294,-0.02652074,-0.
 00001362,0.00005510,0.00005585,-0.00014651,-0.00023132,-0.00012707,0.0
 0005350,0.00004606,0.00000874,-0.00003519,0.00005629,0.00001786,-0.000
 36111,-0.00035514,-0.00029633,-0.00007259,-0.00015304,0.00001042,0.137
 62366,0.09646759,-0.27947606,-0.15595769,-0.11283838,0.30587033,0.0017
 7674,0.00015131,0.00000696,-0.01420983,0.00918749,0.00147352,-0.001696
 59,-0.00215494,-0.00007584,0.00104881,-0.00175376,-0.00005811,0.001300
 65,0.00054698,0.00066292,0.00130132,0.00058438,-0.00061518,-0.00133593
 ,0.00064325,0.00001997,0.00002864,0.00007414,0.00005915,-0.32445531,0.
 12802118,0.00375172,-0.01432336,0.00932541,-0.00091561,0.35053437,0.00
 166070,-0.00391422,-0.00014675,-0.01539526,0.00151394,-0.00160889,-0.0
 0366778,-0.00042430,-0.00004457,0.00049329,-0.00333200,0.00005430,0.00
 065160,-0.00005287,-0.00000645,0.00076585,-0.00000488,-0.00000750,-0.0
 0034412,0.00103614,0.00005516,0.00013857,0.00033880,-0.00000600,0.1777
 8364,-0.09601904,-0.00070370,-0.01752717,0.00248293,0.00164499,-0.1447
 0163,0.09805375,0.00005667,-0.00015066,0.00066345,-0.03264704,0.016304
 08,0.00094165,-0.00012205,-0.00003854,0.00066445,0.00002912,0.00005079
 ,-0.00500598,0.00180458,0.00067754,0.00030335,-0.00176511,-0.00069533,
 0.00024640,-0.00001280,0.00005464,-0.00062181,0.00006814,-0.00020482,0
 .00004190,0.00540284,-0.00079767,-0.06470578,0.03149934,-0.01617122,0.
 00008865,-0.00425480,0.00074616,0.06732739,0.00102189,-0.01900788,0.02
 953584,-0.00000973,-0.00046921,0.00004183,0.00085538,-0.00077258,-0.00
 151163,-0.00047722,0.00069337,0.00090301,-0.00008100,0.00050674,0.0000
 4189,0.00001038,-0.00012258,-0.00007233,-0.02676004,0.00874068,-0.0424
 6820,-0.00255335,0.00125279,0.00244268,-0.00064030,-0.00026721,-0.0007
 2055,-0.00003869,0.00009557,0.00001814,0.00003048,0.00014231,-0.000058
 89,0.02864219,0.00766602,-0.01391191,0.01925821,-0.00020595,-0.0004985
 0,0.00011883,-0.00095313,0.00035854,0.00119947,0.00040124,-0.00044457,
 -0.00082578,0.00024527,-0.00041977,0.00004523,0.00000454,0.00001315,0.
 00002413,-0.01720088,-0.19528546,0.19580162,0.00146142,0.01349335,-0.0
 2231526,-0.00066907,-0.00036721,-0.00086077,-0.00003364,0.00006035,0.0
 0000029,0.00007620,0.00032174,0.00022503,0.00920800,0.19668030,-0.0017
 6060,-0.00070138,0.00113773,-0.00007004,-0.00002282,0.00001868,-0.0003
 4822,0.00055201,0.00032706,0.00012537,-0.00046846,-0.00028531,0.000096
 58,-0.00013022,0.00001316,0.00000843,0.00001267,0.00000857,-0.00763991
 ,0.16881120,-0.27667738,-0.00229441,0.02477520,-0.02650184,0.00010400,
 -0.00025346,-0.00015958,-0.00001473,0.00007300,0.00000992,-0.00005470,
 0.00002324,0.00005632,0.01184823,-0.19267099,0.30205265\\0.00001974,-0
 .00001814,0.00000551,-0.00000973,-0.00001534,-0.00000150,0.00001221,0.
 00002477,0.00001140,-0.00003360,-0.00002128,-0.00002359,0.00001346,-0.
 00000853,0.00000214,0.00000898,0.00000065,0.00000630,-0.00002629,0.000
 01091,0.00000677,0.00000279,-0.00000135,-0.00000453,0.00000780,0.00004
 306,-0.00000370,-0.00000811,-0.00001633,0.00000069,0.00001014,-0.00000
 159,0.00000621,0.00000262,0.00000318,-0.00000571\\\@


 HIGGLEDY-PIGGLEDY
 NIC'LAUS COPERNICUS
 LOOKED AT THE UNIVERSE,
 SPOKE TO THE THRONG;
 GIVE UP YOUR PTOLOMY,
 RISE UP AND FOLLOW ME,
 HELIOCENTRICALLY
 PTOLEMY'S WRONG.
   -- NANCY L. STARK
 Job cpu time:       0 days  0 hours  4 minutes 12.7 seconds.
 Elapsed time:       0 days  0 hours  1 minutes  3.2 seconds.
 File lengths (MBytes):  RWF=     23 Int=      0 D2E=      0 Chk=      3 Scr=      1
 Normal termination of Gaussian 16 at Mon Mar  9 16:21:33 2026.
