Title Card Required                                                     
Freq      RB3LYP                                                      6-311+G(2d,p)       
Number of atoms                            I               12
Info1-9                                    I   N=           9
          38          36        1002           0           0         100
           6          18        -502
Full Title                                 C   N=           2
Title Card Required     
Route                                      C   N=           6
# opt freq b3lyp/6-311+g(2d,p) geom=connectivity out=wfn scf
=xqc        
Charge                                     I                0
Multiplicity                               I                1
Number of electrons                        I               30
Number of alpha electrons                  I               15
Number of beta electrons                   I               15
Number of basis functions                  I              135
Number of independent functions            I              135
Number of point charges in /Mol/           I                0
Number of translation vectors              I                0
Atomic numbers                             I   N=          12
           1           1           1           7           1           1
           7           1           7           1           1           1
Nuclear charges                            R   N=          12
  1.00000000E+00  1.00000000E+00  1.00000000E+00  7.00000000E+00  1.00000000E+00
  1.00000000E+00  7.00000000E+00  1.00000000E+00  7.00000000E+00  1.00000000E+00
  1.00000000E+00  1.00000000E+00
Current cartesian coordinates              R   N=          36
  2.60462165E+00 -3.66493577E-02  2.27562734E-03  9.05277986E-02  4.60810985E+00
 -1.54096566E+00 -1.33579873E+00 -2.24068452E+00 -2.66686780E-04 -3.13245703E+00
 -1.52540940E+00 -3.78789180E-04 -4.03901140E+00 -2.22901751E+00 -1.53856136E+00
 -4.03637546E+00 -2.22322801E+00  1.54201625E+00  2.88794541E+00 -1.94952659E+00
  2.17636127E-04  3.94967078E+00 -2.38246745E+00  1.53906325E+00  2.44987001E-01
  3.47481111E+00  6.18521700E-05  8.75579006E-02  4.60976371E+00  1.53957011E+00
 -1.27112452E+00  2.27438557E+00 -7.83206322E-04  3.94660433E+00 -2.37933811E+00
 -1.54165321E+00
Number of symbols in /Mol/                 I                0
Force Field                                I                0
Atom Types                                 C   N=          12
                                                            
                                                            
                        
Int Atom Types                             I   N=          12
           0           0           0           0           0           0
           0           0           0           0           0           0
MM charges                                 R   N=          12
  0.00000000E+00  0.00000000E+00  0.00000000E+00  0.00000000E+00  0.00000000E+00
  0.00000000E+00  0.00000000E+00  0.00000000E+00  0.00000000E+00  0.00000000E+00
  0.00000000E+00  0.00000000E+00
Integer atomic weights                     I   N=          12
           1           1           1          14           1           1
          14           1          14           1           1           1
Real atomic weights                        R   N=          12
  1.00782504E+00  1.00782504E+00  1.00782504E+00  1.40030740E+01  1.00782504E+00
  1.00782504E+00  1.40030740E+01  1.00782504E+00  1.40030740E+01  1.00782504E+00
  1.00782504E+00  1.00782504E+00
Atom fragment info                         I   N=          12
           0           0           0           0           0           0
           0           0           0           0           0           0
Atom residue num                           I   N=          12
           0           0           0           0           0           0
           0           0           0           0           0           0
Nuclear spins                              I   N=          12
           1           1           1           2           1           1
           2           1           2           1           1           1
Nuclear ZEff                               R   N=          12
 -1.00000000E+00 -1.00000000E+00 -1.00000000E+00 -4.55000000E+00 -1.00000000E+00
 -1.00000000E+00 -4.55000000E+00 -1.00000000E+00 -4.55000000E+00 -1.00000000E+00
 -1.00000000E+00 -1.00000000E+00
Nuclear ZNuc                               R   N=          12
  1.00000000E+00  1.00000000E+00  1.00000000E+00  7.00000000E+00  1.00000000E+00
  1.00000000E+00  7.00000000E+00  1.00000000E+00  7.00000000E+00  1.00000000E+00
  1.00000000E+00  1.00000000E+00
Nuclear QMom                               R   N=          12
  0.00000000E+00  0.00000000E+00  0.00000000E+00  2.04400000E+00  0.00000000E+00
  0.00000000E+00  2.04400000E+00  0.00000000E+00  2.04400000E+00  0.00000000E+00
  0.00000000E+00  0.00000000E+00
Nuclear GFac                               R   N=          12
  2.79284600E+00  2.79284600E+00  2.79284600E+00  4.03761000E-01  2.79284600E+00
  2.79284600E+00  4.03761000E-01  2.79284600E+00  4.03761000E-01  2.79284600E+00
  2.79284600E+00  2.79284600E+00
MicOpt                                     I   N=          12
          -1          -1          -1          -1          -1          -1
          -1          -1          -1          -1          -1          -1
Number of residues                         I                0
Number of secondary structures             I                0
Redundant internal dimensions              I   N=           4
          66          14          23          29
Redundant internal coordinate indices      I   N=         264
           1           7           0           0           1           9
           0           0           1          11           0           0
           2           9           0           0           3           4
           0           0           3          12           0           0
           4           5           0           0           4           6
           0           0           4          11           0           0
           5          12           0           0           7           8
           0           0           7          12           0           0
           9          10           0           0           9          11
           0           0           7           1           9           0
           7           1          11           0           4           3
          12           0           3           4           5           0
           3           4           6           0           3           4
          11           0           5           4           6           0
           5           4          11           0           6           4
          11           0           4           5          12           0
           1           7           8           0           1           7
          12           0           8           7          12           0
           1           9           2           0           1           9
          10           0           2           9          10           0
           2           9          11           0          10           9
          11           0           1          11           4           0
           4          11           9           0           3          12
           5           0           3          12           7           0
           5          12           7           0           9           1
           7           8           9           1           7          12
          11           1           7           8          11           1
           7          12           7           1           9           2
           7           1           9          10           7           1
          11           4          12           3           4           5
          12           3           4           6          12           3
           4          11           4           3          12           5
           4           3          12           7           3           4
           5          12           6           4           5          12
          11           4           5          12           3           4
          11           1           3           4          11           9
           5           4          11           1           5           4
          11           9           6           4          11           1
           6           4          11           9           4           5
          12           3           4           5          12           7
           1           7          12           3           1           7
          12           5           8           7          12           3
           8           7          12           5           2           9
          11           4          10           9          11           4
Redundant internal coordinates             R   N=          66
  1.93374659E+00  4.23063058E+00  4.51246054E+00  1.91911164E+00  1.93380443E+00
  5.50444178E+00  1.91909115E+00  1.91911485E+00  4.23119377E+00  7.98703102E+00
  1.91904778E+00  1.91907852E+00  1.91911099E+00  1.93380876E+00  2.69696203E+00
  2.25552029E+00  2.69264224E+00  1.87897188E+00  1.87870211E+00  1.49418062E+00
  1.86331730E+00  2.13765541E+00  2.13390617E+00  1.08705660E+00  1.87902827E+00
  1.87887761E+00  1.86349146E+00  2.13584641E+00  2.13672126E+00  1.86326498E+00
  1.87876803E+00  1.87879242E+00  1.48861093E+00  2.69599944E+00  2.83528524E-01
  7.07446732E-01  9.81136792E-01 -2.14428607E+00  2.13567298E+00 -2.14257988E+00
  2.13737917E+00 -1.88335432E+00  1.88967941E+00  1.96749495E-03  1.44080147E+00
 -2.83947516E+00 -7.01330515E-01 -9.46783440E-01  1.89325385E+00 -3.41639158E-01
 -2.35473825E+00  1.33677036E+00 -6.06808888E-04 -1.14855273E-03 -1.88843885E+00
 -1.88898059E+00  1.88642811E+00  1.88588637E+00  4.12528450E-01  1.78147186E-01
 -1.67536612E+00 -1.57523150E+00  2.59430259E+00  2.69443721E+00  2.14031162E+00
 -2.14008219E+00
ZRed-IntVec                                I   N=          66
           0           0           0           0           0           0
           0           0           0           0           0           0
           0           0           0           0           0           0
           0           0           0           0           0           0
           0           0           0           0           0           0
           0           0           0           0           0           0
           0           0           0           0           0           0
           0           0           0           0           0           0
           0           0           0           0           0           0
           0           0           0           0           0           0
           0           0           0           0           0           0
ZRed-FPVec                                 R   N=          66
  0.00000000E+00  0.00000000E+00  0.00000000E+00  0.00000000E+00  0.00000000E+00
  0.00000000E+00  0.00000000E+00  0.00000000E+00  0.00000000E+00  0.00000000E+00
  0.00000000E+00  0.00000000E+00  0.00000000E+00  0.00000000E+00  0.00000000E+00
  0.00000000E+00  0.00000000E+00  0.00000000E+00  0.00000000E+00  0.00000000E+00
  0.00000000E+00  0.00000000E+00  0.00000000E+00  0.00000000E+00  0.00000000E+00
  0.00000000E+00  0.00000000E+00  0.00000000E+00  0.00000000E+00  0.00000000E+00
  0.00000000E+00  0.00000000E+00  0.00000000E+00  0.00000000E+00  0.00000000E+00
  0.00000000E+00  0.00000000E+00  0.00000000E+00  0.00000000E+00  0.00000000E+00
  0.00000000E+00  0.00000000E+00  0.00000000E+00  0.00000000E+00  0.00000000E+00
  0.00000000E+00  0.00000000E+00  0.00000000E+00  0.00000000E+00  0.00000000E+00
  0.00000000E+00  0.00000000E+00  0.00000000E+00  0.00000000E+00  0.00000000E+00
  0.00000000E+00  0.00000000E+00  0.00000000E+00  0.00000000E+00  0.00000000E+00
  0.00000000E+00  0.00000000E+00  0.00000000E+00  0.00000000E+00  0.00000000E+00
  0.00000000E+00
ZRed-Constraint1                           R   N=          66
  1.93374659E+00  4.23063058E+00  4.51246054E+00  1.91911164E+00  1.93380443E+00
  5.50444178E+00  1.91909115E+00  1.91911485E+00  4.23119377E+00  7.98703102E+00
  1.91904778E+00  1.91907852E+00  1.91911099E+00  1.93380876E+00  2.69696203E+00
  2.25552029E+00  2.69264224E+00  1.87897188E+00  1.87870211E+00  1.49418062E+00
  1.86331730E+00  2.13765541E+00  2.13390617E+00  1.08705660E+00  1.87902827E+00
  1.87887761E+00  1.86349146E+00  2.13584641E+00  2.13672126E+00  1.86326498E+00
  1.87876803E+00  1.87879242E+00  1.48861093E+00  2.69599944E+00  2.83528524E-01
  7.07446732E-01  9.81136792E-01 -2.14428607E+00  2.13567298E+00 -2.14257988E+00
  2.13737917E+00 -1.88335432E+00  1.88967941E+00  1.96749495E-03  1.44080147E+00
 -2.83947516E+00 -7.01330515E-01 -9.46783440E-01  1.89325385E+00 -3.41639158E-01
 -2.35473825E+00  1.33677036E+00 -6.06808888E-04 -1.14855273E-03 -1.88843885E+00
 -1.88898059E+00  1.88642811E+00  1.88588637E+00  4.12528450E-01  1.78147186E-01
 -1.67536612E+00 -1.57523150E+00  2.59430259E+00  2.69443721E+00  2.14031162E+00
 -2.14008219E+00
ZRed-Constraint2                           R   N=          66
  1.88972612E+00  4.51555823E+00  4.61686243E+00  1.90317774E+00  1.90910552E+00
  4.47535080E+00  1.90913000E+00  1.90274250E+00  4.60654548E+00  4.46565442E+00
  1.88972612E+00  1.88972612E+00  1.90291101E+00  1.91732803E+00  2.54702476E+00
  2.33577350E+00  1.86089930E+00  1.85359002E+00  1.86962444E+00  1.57436492E+00
  1.86964363E+00  1.56339847E+00  2.63224180E+00  1.86684945E+00  2.09439511E+00
  2.09439510E+00  2.09439510E+00  2.07638052E+00  2.24331947E+00  1.87110679E+00
  1.86915409E+00  1.86925391E+00  1.32633536E+00  2.63245742E+00  6.97042663E-01
  1.75151468E+00  1.83472942E+00 -1.37032510E+00  1.77126756E+00 -1.94854239E+00
  1.19305026E+00 -3.11750192E+00  5.33388206E-01 -8.00322683E-01  8.84620977E-02
  2.08207341E+00 -1.47566732E+00 -5.65284227E-02  1.71040508E+00 -8.88144305E-02
 -2.08241260E+00  1.48354847E+00  1.06215558E+00  9.77481369E-01 -7.91416755E-01
 -8.76090963E-01 -2.99397747E+00 -3.07865168E+00  5.66293963E-02 -1.48141825E+00
 -1.00714951E+00 -2.96626319E-01  2.13444314E+00  2.84496633E+00  2.13808385E+00
 -2.14260229E+00
SymInf integers                            I   N=          26
           1           1           1           1           1           0
           0           0           0           0           0           0
           0           0           0           0           0           0
           0           0           0           0           0           0
           0           0
RotTr to input orientation                 R   N=          12
 -4.37023192E-01  8.99014625E-01  2.79898879E-02 -8.99448394E-01 -4.36747646E-01
 -1.56230474E-02 -1.82083046E-03 -3.20030938E-02  9.99486111E-01  1.61188219E-01
  7.95230137E-02 -6.20281863E-03
Number of contracted shells                I               57
Number of primitive shells                 I               96
Pure/Cartesian d shells                    I                0
Pure/Cartesian f shells                    I                0
Highest angular momentum                   I                2
Largest degree of contraction              I                6
Shell types                                I   N=          57
           0           0           0           1           0           0
           0           1           0           0           0           1
           0          -1          -1          -1          -1          -2
          -2           0           0           0           1           0
           0           0           1           0          -1          -1
          -1          -1          -2          -2           0           0
           0           1           0          -1          -1          -1
          -1          -2          -2           0           0           0
           1           0           0           0           1           0
           0           0           1
Number of primitives per shell             I   N=          57
           3           1           1           1           3           1
           1           1           3           1           1           1
           6           3           1           1           1           1
           1           3           1           1           1           3
           1           1           1           6           3           1
           1           1           1           1           3           1
           1           1           6           3           1           1
           1           1           1           3           1           1
           1           3           1           1           1           3
           1           1           1
Shell to atom map                          I   N=          57
           1           1           1           1           2           2
           2           2           3           3           3           3
           4           4           4           4           4           4
           4           5           5           5           5           6
           6           6           6           7           7           7
           7           7           7           7           8           8
           8           8           9           9           9           9
           9           9           9          10          10          10
          10          11          11          11          11          12
          12          12          12
Primitive exponents                        R   N=          96
  3.38650000E+01  5.09479000E+00  1.15879000E+00  3.25840000E-01  1.02741000E-01
  7.50000000E-01  3.38650000E+01  5.09479000E+00  1.15879000E+00  3.25840000E-01
  1.02741000E-01  7.50000000E-01  3.38650000E+01  5.09479000E+00  1.15879000E+00
  3.25840000E-01  1.02741000E-01  7.50000000E-01  6.29348000E+03  9.49044000E+02
  2.18776000E+02  6.36916000E+01  1.88282000E+01  2.72023000E+00  3.06331000E+01
  7.02614000E+00  2.11205000E+00  6.84009000E-01  2.00878000E-01  6.39000000E-02
  1.82600000E+00  4.56500000E-01  3.38650000E+01  5.09479000E+00  1.15879000E+00
  3.25840000E-01  1.02741000E-01  7.50000000E-01  3.38650000E+01  5.09479000E+00
  1.15879000E+00  3.25840000E-01  1.02741000E-01  7.50000000E-01  6.29348000E+03
  9.49044000E+02  2.18776000E+02  6.36916000E+01  1.88282000E+01  2.72023000E+00
  3.06331000E+01  7.02614000E+00  2.11205000E+00  6.84009000E-01  2.00878000E-01
  6.39000000E-02  1.82600000E+00  4.56500000E-01  3.38650000E+01  5.09479000E+00
  1.15879000E+00  3.25840000E-01  1.02741000E-01  7.50000000E-01  6.29348000E+03
  9.49044000E+02  2.18776000E+02  6.36916000E+01  1.88282000E+01  2.72023000E+00
  3.06331000E+01  7.02614000E+00  2.11205000E+00  6.84009000E-01  2.00878000E-01
  6.39000000E-02  1.82600000E+00  4.56500000E-01  3.38650000E+01  5.09479000E+00
  1.15879000E+00  3.25840000E-01  1.02741000E-01  7.50000000E-01  3.38650000E+01
  5.09479000E+00  1.15879000E+00  3.25840000E-01  1.02741000E-01  7.50000000E-01
  3.38650000E+01  5.09479000E+00  1.15879000E+00  3.25840000E-01  1.02741000E-01
  7.50000000E-01
Contraction coefficients                   R   N=          96
  2.54938145E-02  1.90373109E-01  8.52161486E-01  1.00000000E+00  1.00000000E+00
  1.00000000E+00  2.54938145E-02  1.90373109E-01  8.52161486E-01  1.00000000E+00
  1.00000000E+00  1.00000000E+00  2.54938145E-02  1.90373109E-01  8.52161486E-01
  1.00000000E+00  1.00000000E+00  1.00000000E+00  1.96978815E-03  1.49612859E-02
  7.35005308E-02  2.48936766E-01  6.02459433E-01  2.56201759E-01  1.11906080E-01
  9.21666655E-01 -2.56919183E-03  1.00000000E+00  1.00000000E+00  1.00000000E+00
  1.00000000E+00  1.00000000E+00  2.54938145E-02  1.90373109E-01  8.52161486E-01
  1.00000000E+00  1.00000000E+00  1.00000000E+00  2.54938145E-02  1.90373109E-01
  8.52161486E-01  1.00000000E+00  1.00000000E+00  1.00000000E+00  1.96978815E-03
  1.49612859E-02  7.35005308E-02  2.48936766E-01  6.02459433E-01  2.56201759E-01
  1.11906080E-01  9.21666655E-01 -2.56919183E-03  1.00000000E+00  1.00000000E+00
  1.00000000E+00  1.00000000E+00  1.00000000E+00  2.54938145E-02  1.90373109E-01
  8.52161486E-01  1.00000000E+00  1.00000000E+00  1.00000000E+00  1.96978815E-03
  1.49612859E-02  7.35005308E-02  2.48936766E-01  6.02459433E-01  2.56201759E-01
  1.11906080E-01  9.21666655E-01 -2.56919183E-03  1.00000000E+00  1.00000000E+00
  1.00000000E+00  1.00000000E+00  1.00000000E+00  2.54938145E-02  1.90373109E-01
  8.52161486E-01  1.00000000E+00  1.00000000E+00  1.00000000E+00  2.54938145E-02
  1.90373109E-01  8.52161486E-01  1.00000000E+00  1.00000000E+00  1.00000000E+00
  2.54938145E-02  1.90373109E-01  8.52161486E-01  1.00000000E+00  1.00000000E+00
  1.00000000E+00
P(S=P) Contraction coefficients            R   N=          96
  0.00000000E+00  0.00000000E+00  0.00000000E+00  0.00000000E+00  0.00000000E+00
  0.00000000E+00  0.00000000E+00  0.00000000E+00  0.00000000E+00  0.00000000E+00
  0.00000000E+00  0.00000000E+00  0.00000000E+00  0.00000000E+00  0.00000000E+00
  0.00000000E+00  0.00000000E+00  0.00000000E+00  0.00000000E+00  0.00000000E+00
  0.00000000E+00  0.00000000E+00  0.00000000E+00  0.00000000E+00  3.83119186E-02
  2.37403116E-01  8.17592398E-01  1.00000000E+00  1.00000000E+00  1.00000000E+00
  0.00000000E+00  0.00000000E+00  0.00000000E+00  0.00000000E+00  0.00000000E+00
  0.00000000E+00  0.00000000E+00  0.00000000E+00  0.00000000E+00  0.00000000E+00
  0.00000000E+00  0.00000000E+00  0.00000000E+00  0.00000000E+00  0.00000000E+00
  0.00000000E+00  0.00000000E+00  0.00000000E+00  0.00000000E+00  0.00000000E+00
  3.83119186E-02  2.37403116E-01  8.17592398E-01  1.00000000E+00  1.00000000E+00
  1.00000000E+00  0.00000000E+00  0.00000000E+00  0.00000000E+00  0.00000000E+00
  0.00000000E+00  0.00000000E+00  0.00000000E+00  0.00000000E+00  0.00000000E+00
  0.00000000E+00  0.00000000E+00  0.00000000E+00  0.00000000E+00  0.00000000E+00
  3.83119186E-02  2.37403116E-01  8.17592398E-01  1.00000000E+00  1.00000000E+00
  1.00000000E+00  0.00000000E+00  0.00000000E+00  0.00000000E+00  0.00000000E+00
  0.00000000E+00  0.00000000E+00  0.00000000E+00  0.00000000E+00  0.00000000E+00
  0.00000000E+00  0.00000000E+00  0.00000000E+00  0.00000000E+00  0.00000000E+00
  0.00000000E+00  0.00000000E+00  0.00000000E+00  0.00000000E+00  0.00000000E+00
  0.00000000E+00
Coordinates of each shell                  R   N=         171
  2.60462165E+00 -3.66493577E-02  2.27562734E-03  2.60462165E+00 -3.66493577E-02
  2.27562734E-03  2.60462165E+00 -3.66493577E-02  2.27562734E-03  2.60462165E+00
 -3.66493577E-02  2.27562734E-03  9.05277986E-02  4.60810985E+00 -1.54096566E+00
  9.05277986E-02  4.60810985E+00 -1.54096566E+00  9.05277986E-02  4.60810985E+00
 -1.54096566E+00  9.05277986E-02  4.60810985E+00 -1.54096566E+00 -1.33579873E+00
 -2.24068452E+00 -2.66686780E-04 -1.33579873E+00 -2.24068452E+00 -2.66686780E-04
 -1.33579873E+00 -2.24068452E+00 -2.66686780E-04 -1.33579873E+00 -2.24068452E+00
 -2.66686780E-04 -3.13245703E+00 -1.52540940E+00 -3.78789180E-04 -3.13245703E+00
 -1.52540940E+00 -3.78789180E-04 -3.13245703E+00 -1.52540940E+00 -3.78789180E-04
 -3.13245703E+00 -1.52540940E+00 -3.78789180E-04 -3.13245703E+00 -1.52540940E+00
 -3.78789180E-04 -3.13245703E+00 -1.52540940E+00 -3.78789180E-04 -3.13245703E+00
 -1.52540940E+00 -3.78789180E-04 -4.03901140E+00 -2.22901751E+00 -1.53856136E+00
 -4.03901140E+00 -2.22901751E+00 -1.53856136E+00 -4.03901140E+00 -2.22901751E+00
 -1.53856136E+00 -4.03901140E+00 -2.22901751E+00 -1.53856136E+00 -4.03637546E+00
 -2.22322801E+00  1.54201625E+00 -4.03637546E+00 -2.22322801E+00  1.54201625E+00
 -4.03637546E+00 -2.22322801E+00  1.54201625E+00 -4.03637546E+00 -2.22322801E+00
  1.54201625E+00  2.88794541E+00 -1.94952659E+00  2.17636127E-04  2.88794541E+00
 -1.94952659E+00  2.17636127E-04  2.88794541E+00 -1.94952659E+00  2.17636127E-04
  2.88794541E+00 -1.94952659E+00  2.17636127E-04  2.88794541E+00 -1.94952659E+00
  2.17636127E-04  2.88794541E+00 -1.94952659E+00  2.17636127E-04  2.88794541E+00
 -1.94952659E+00  2.17636127E-04  3.94967078E+00 -2.38246745E+00  1.53906325E+00
  3.94967078E+00 -2.38246745E+00  1.53906325E+00  3.94967078E+00 -2.38246745E+00
  1.53906325E+00  3.94967078E+00 -2.38246745E+00  1.53906325E+00  2.44987001E-01
  3.47481111E+00  6.18521700E-05  2.44987001E-01  3.47481111E+00  6.18521700E-05
  2.44987001E-01  3.47481111E+00  6.18521700E-05  2.44987001E-01  3.47481111E+00
  6.18521700E-05  2.44987001E-01  3.47481111E+00  6.18521700E-05  2.44987001E-01
  3.47481111E+00  6.18521700E-05  2.44987001E-01  3.47481111E+00  6.18521700E-05
  8.75579006E-02  4.60976371E+00  1.53957011E+00  8.75579006E-02  4.60976371E+00
  1.53957011E+00  8.75579006E-02  4.60976371E+00  1.53957011E+00  8.75579006E-02
  4.60976371E+00  1.53957011E+00 -1.27112452E+00  2.27438557E+00 -7.83206322E-04
 -1.27112452E+00  2.27438557E+00 -7.83206322E-04 -1.27112452E+00  2.27438557E+00
 -7.83206322E-04 -1.27112452E+00  2.27438557E+00 -7.83206322E-04  3.94660433E+00
 -2.37933811E+00 -1.54165321E+00  3.94660433E+00 -2.37933811E+00 -1.54165321E+00
  3.94660433E+00 -2.37933811E+00 -1.54165321E+00  3.94660433E+00 -2.37933811E+00
 -1.54165321E+00
Num ILSW                                   I              100
ILSW                                       I   N=         100
           0           0           0           0           2           0
           0           0           0           0         402          -1
           5           0           0           0           2           0
           0           0           1           0           1           0
           1           0           0           0           0           0
           0           0      100000           0          -1           0
           0           0           0           0           0           0
           0           0           0           1           0           0
           0 -2000000000           1           0           0           0
           0           0           4          52           0           0
           0           0           5           0           0           0
           0           0           0           0           0           1
           0           0           0           0           0           0
           0           0           0           0           0           0
           0           0           0           0           0           0
           0           0           0           0           0           0
           0           0           0           0
Num RLSW                                   I               52
RLSW                                       R   N=          52
  8.00000000E-01  7.20000000E-01  1.00000000E+00  8.10000000E-01  2.00000000E-01
  0.00000000E+00  0.00000000E+00  1.00000000E+00  0.00000000E+00  0.00000000E+00
  0.00000000E+00  0.00000000E+00  1.00000000E+00  0.00000000E+00  0.00000000E+00
  0.00000000E+00  0.00000000E+00  1.00000000E+00  0.00000000E+00  0.00000000E+00
  0.00000000E+00  0.00000000E+00  1.00000000E+00  0.00000000E+00  0.00000000E+00
  0.00000000E+00  0.00000000E+00  1.00000000E+00  0.00000000E+00  0.00000000E+00
  0.00000000E+00  0.00000000E+00  1.00000000E+00  0.00000000E+00  0.00000000E+00
  0.00000000E+00  0.00000000E+00  0.00000000E+00  1.00000000E+00  1.00000000E+00
  0.00000000E+00  1.00000000E+00  0.00000000E+00  0.00000000E+00  0.00000000E+00
  0.00000000E+00  0.00000000E+00  0.00000000E+00  0.00000000E+00  0.00000000E+00
  0.00000000E+00  0.00000000E+00
MxBond                                     I                4
NBond                                      I   N=          12
           3           1           2           4           2           1
           3           1           4           1           3           3
IBond                                      I   N=          48
           7           9          11           0           9           0
           0           0           4          12           0           0
           3           5           6          11           4          12
           0           0           4           0           0           0
           1           8          12           0           7           0
           0           0           1           2          10          11
           9           0           0           0           1           4
           9           0           3           5           7           0
RBond                                      R   N=          48
  1.00000000E+00  1.00000000E-01  1.00000000E-01  0.00000000E+00  1.00000000E+00
  0.00000000E+00  0.00000000E+00  0.00000000E+00  1.00000000E+00  1.00000000E-01
  0.00000000E+00  0.00000000E+00  1.00000000E+00  1.00000000E+00  1.00000000E+00
  1.00000000E-01  1.00000000E+00  1.00000000E-01  0.00000000E+00  0.00000000E+00
  1.00000000E+00  0.00000000E+00  0.00000000E+00  0.00000000E+00  1.00000000E+00
  1.00000000E+00  1.00000000E+00  0.00000000E+00  1.00000000E+00  0.00000000E+00
  0.00000000E+00  0.00000000E+00  1.00000000E-01  1.00000000E+00  1.00000000E+00
  1.00000000E+00  1.00000000E+00  0.00000000E+00  0.00000000E+00  0.00000000E+00
  1.00000000E-01  1.00000000E-01  1.00000000E+00  0.00000000E+00  1.00000000E-01
  1.00000000E-01  1.00000000E+00  0.00000000E+00
Virial Ratio                               R      2.004345738602710E+00
SCF Energy                                 R     -1.697669450849470E+02
Total Energy                               R     -1.697669450849470E+02
RMS Force                                  R      1.475075149962043E-05
RMS Density                                R      8.889135748543574E-10
NImag                                      I                0
Job Status                                 I                1
Nuclear derivative order                   I                2
External E-field                           R   N=          35