 Title Card Required
GAUSSIAN             15 MOL ORBITALS    174 PRIMITIVES        9 NUCLEI
  O    1    (CENTRE  1)   2.51697745  1.71991589  0.17632591  CHARGE =  8.0
  H    2    (CENTRE  2)   2.31651496 -0.11149904  0.03648128  CHARGE =  1.0
  H    3    (CENTRE  3)   3.74309513  2.20005610 -1.07742160  CHARGE =  1.0
  O    4    (CENTRE  4)   0.24145190 -3.02721928 -0.20881712  CHARGE =  8.0
  H    5    (CENTRE  5)  -1.25502303 -1.94870886 -0.10508172  CHARGE =  1.0
  H    6    (CENTRE  6)   0.09012086 -4.23699437  1.14108101  CHARGE =  1.0
  O    7    (CENTRE  7)  -2.76257479  1.29600868  0.16165503  CHARGE =  8.0
  H    8    (CENTRE  8)  -1.09821320  2.09239321  0.10098334  CHARGE =  1.0
  H    9    (CENTRE  9)  -3.76333116  2.09511065 -1.12935282  CHARGE =  1.0
CENTRE ASSIGNMENTS    1  1  1  1  1  1  1  1  1  1  1  1  1  1  1  1  1  1  1  1
CENTRE ASSIGNMENTS    1  1  1  1  1  1  1  1  1  1  1  1  1  1  1  1  1  1  1  1
CENTRE ASSIGNMENTS    1  1  2  2  2  2  2  2  2  2  3  3  3  3  3  3  3  3  4  4
CENTRE ASSIGNMENTS    4  4  4  4  4  4  4  4  4  4  4  4  4  4  4  4  4  4  4  4
CENTRE ASSIGNMENTS    4  4  4  4  4  4  4  4  4  4  4  4  4  4  4  4  4  4  4  4
CENTRE ASSIGNMENTS    5  5  5  5  5  5  5  5  6  6  6  6  6  6  6  6  7  7  7  7
CENTRE ASSIGNMENTS    7  7  7  7  7  7  7  7  7  7  7  7  7  7  7  7  7  7  7  7
CENTRE ASSIGNMENTS    7  7  7  7  7  7  7  7  7  7  7  7  7  7  7  7  7  7  8  8
CENTRE ASSIGNMENTS    8  8  8  8  8  8  9  9  9  9  9  9  9  9
TYPE ASSIGNMENTS      1  1  1  1  1  1  1  1  1  2  2  2  3  3  3  4  4  4  1  2
TYPE ASSIGNMENTS      3  4  1  2  3  4  1  2  3  4  5  6  7  8  9 10  5  6  7  8
TYPE ASSIGNMENTS      9 10  1  1  1  1  1  2  3  4  1  1  1  1  1  2  3  4  1  1
TYPE ASSIGNMENTS      1  1  1  1  1  1  1  2  2  2  3  3  3  4  4  4  1  2  3  4
TYPE ASSIGNMENTS      1  2  3  4  1  2  3  4  5  6  7  8  9 10  5  6  7  8  9 10
TYPE ASSIGNMENTS      1  1  1  1  1  2  3  4  1  1  1  1  1  2  3  4  1  1  1  1
TYPE ASSIGNMENTS      1  1  1  1  1  2  2  2  3  3  3  4  4  4  1  2  3  4  1  2
TYPE ASSIGNMENTS      3  4  1  2  3  4  5  6  7  8  9 10  5  6  7  8  9 10  1  1
TYPE ASSIGNMENTS      1  1  1  2  3  4  1  1  1  1  1  2  3  4
EXPONENTS  0.8588500D+04 0.1297230D+04 0.2992960D+03 0.8737710D+02 0.2567890D+02
EXPONENTS  0.3740040D+01 0.4211750D+02 0.9628370D+01 0.2853320D+01 0.4211750D+02
EXPONENTS  0.9628370D+01 0.2853320D+01 0.4211750D+02 0.9628370D+01 0.2853320D+01
EXPONENTS  0.4211750D+02 0.9628370D+01 0.2853320D+01 0.9056610D+00 0.9056610D+00
EXPONENTS  0.9056610D+00 0.9056610D+00 0.2556110D+00 0.2556110D+00 0.2556110D+00
EXPONENTS  0.2556110D+00 0.8450000D-01 0.8450000D-01 0.8450000D-01 0.8450000D-01
EXPONENTS  0.2584000D+01 0.2584000D+01 0.2584000D+01 0.2584000D+01 0.2584000D+01
EXPONENTS  0.2584000D+01 0.6460000D+00 0.6460000D+00 0.6460000D+00 0.6460000D+00
EXPONENTS  0.6460000D+00 0.6460000D+00 0.3386500D+02 0.5094790D+01 0.1158790D+01
EXPONENTS  0.3258400D+00 0.1027410D+00 0.7500000D+00 0.7500000D+00 0.7500000D+00
EXPONENTS  0.3386500D+02 0.5094790D+01 0.1158790D+01 0.3258400D+00 0.1027410D+00
EXPONENTS  0.7500000D+00 0.7500000D+00 0.7500000D+00 0.8588500D+04 0.1297230D+04
EXPONENTS  0.2992960D+03 0.8737710D+02 0.2567890D+02 0.3740040D+01 0.4211750D+02
EXPONENTS  0.9628370D+01 0.2853320D+01 0.4211750D+02 0.9628370D+01 0.2853320D+01
EXPONENTS  0.4211750D+02 0.9628370D+01 0.2853320D+01 0.4211750D+02 0.9628370D+01
EXPONENTS  0.2853320D+01 0.9056610D+00 0.9056610D+00 0.9056610D+00 0.9056610D+00
EXPONENTS  0.2556110D+00 0.2556110D+00 0.2556110D+00 0.2556110D+00 0.8450000D-01
EXPONENTS  0.8450000D-01 0.8450000D-01 0.8450000D-01 0.2584000D+01 0.2584000D+01
EXPONENTS  0.2584000D+01 0.2584000D+01 0.2584000D+01 0.2584000D+01 0.6460000D+00
EXPONENTS  0.6460000D+00 0.6460000D+00 0.6460000D+00 0.6460000D+00 0.6460000D+00
EXPONENTS  0.3386500D+02 0.5094790D+01 0.1158790D+01 0.3258400D+00 0.1027410D+00
EXPONENTS  0.7500000D+00 0.7500000D+00 0.7500000D+00 0.3386500D+02 0.5094790D+01
EXPONENTS  0.1158790D+01 0.3258400D+00 0.1027410D+00 0.7500000D+00 0.7500000D+00
EXPONENTS  0.7500000D+00 0.8588500D+04 0.1297230D+04 0.2992960D+03 0.8737710D+02
EXPONENTS  0.2567890D+02 0.3740040D+01 0.4211750D+02 0.9628370D+01 0.2853320D+01
EXPONENTS  0.4211750D+02 0.9628370D+01 0.2853320D+01 0.4211750D+02 0.9628370D+01
EXPONENTS  0.2853320D+01 0.4211750D+02 0.9628370D+01 0.2853320D+01 0.9056610D+00
EXPONENTS  0.9056610D+00 0.9056610D+00 0.9056610D+00 0.2556110D+00 0.2556110D+00
EXPONENTS  0.2556110D+00 0.2556110D+00 0.8450000D-01 0.8450000D-01 0.8450000D-01
EXPONENTS  0.8450000D-01 0.2584000D+01 0.2584000D+01 0.2584000D+01 0.2584000D+01
EXPONENTS  0.2584000D+01 0.2584000D+01 0.6460000D+00 0.6460000D+00 0.6460000D+00
EXPONENTS  0.6460000D+00 0.6460000D+00 0.6460000D+00 0.3386500D+02 0.5094790D+01
EXPONENTS  0.1158790D+01 0.3258400D+00 0.1027410D+00 0.7500000D+00 0.7500000D+00
EXPONENTS  0.7500000D+00 0.3386500D+02 0.5094790D+01 0.1158790D+01 0.3258400D+00
EXPONENTS  0.1027410D+00 0.7500000D+00 0.7500000D+00 0.7500000D+00
MO    1     MO 0.0        OCC NO =    2.0000000  ORB. ENERGY =  -19.131560
 -0.12387515D-04 -0.22782552D-04 -0.37290158D-04 -0.50253218D-04 -0.49711136D-04
 -0.55329913D-05 -0.17622034D-04 -0.47104500D-04  0.67279259D-07  0.11127839D-03
  0.11425460D-03  0.86347189D-04  0.12943755D-04  0.13289944D-04  0.10043791D-04
  0.39527140D-05  0.40584319D-05  0.30671342D-05  0.15498706D-04 -0.11207482D-03
 -0.22485311D-04  0.20882273D-05  0.29188702D-04  0.61166626D-04  0.18891755D-04
  0.30296508D-05 -0.32377051D-03  0.14970412D-04  0.34183994D-04  0.23177236D-04
  0.29865697D-03 -0.13319355D-03 -0.16546341D-03 -0.12240562D-03  0.15515917D-04
 -0.91480950D-05 -0.84199472D-04  0.46340847D-04  0.37858624D-04  0.75176967D-05
  0.39730244D-05  0.10083908D-04 -0.26413934D-05 -0.47646968D-05 -0.70244190D-05
 -0.23684238D-04  0.27261760D-03 -0.72900411D-04 -0.11828150D-04 -0.14925984D-05
 -0.25312684D-05 -0.45660470D-05 -0.67315568D-05 -0.21905230D-05  0.95794457D-04
 -0.40940185D-04  0.90564795D-06 -0.45992107D-05  0.89908754D-04  0.16535608D-03
  0.27065249D-03  0.36473855D-03  0.36080411D-03  0.40158528D-04  0.74814463D-04
  0.19998247D-03 -0.28563454D-06  0.37029830D-04  0.38020217D-04  0.28733538D-04
 -0.36255981D-04 -0.37225670D-04 -0.28133064D-04  0.35562961D-04  0.36514115D-04
  0.27595311D-04  0.55959678D-04 -0.37836478D-04  0.71217873D-04 -0.32272717D-04
 -0.10072243D-03  0.53165683D-04 -0.68509132D-04 -0.47813340D-04 -0.85085397D-04
  0.13015795D-05 -0.12327737D-04 -0.78480969D-05 -0.15385015D-04  0.14699261D-03
 -0.13160759D-03 -0.48542150D-03 -0.98365662D-04 -0.86737041D-04  0.49716098D-04
 -0.72743083D-04  0.23026986D-04  0.14413351D-03  0.44850802D-04  0.65182795D-04
 -0.48140271D-04 -0.86838180D-04 -0.12802237D-03  0.28272974D-03 -0.12337326D-03
  0.29501683D-04  0.23327688D-03  0.57698402D-04 -0.31326973D-05 -0.56509390D-05
 -0.83309737D-05  0.10083439D-03  0.26754021D-04 -0.48191136D-05  0.80141537D-04
 -0.42733456D-04  0.66435352D+00  0.12218487D+01  0.19999046D+01  0.26951251D+01
  0.26660528D+01  0.29673928D+00  0.63042011D+00  0.16851417D+01 -0.24068843D-02
  0.15021976D-02  0.15423749D-02  0.11656400D-02  0.43488671D-02  0.44651804D-02
  0.33745317D-02 -0.41812238D-02 -0.42930533D-02 -0.32444478D-02  0.85630672D-02
  0.17855444D-03  0.20451037D-03 -0.35769297D-03 -0.13304821D-02 -0.15596583D-03
  0.17217040D-03 -0.98003677D-04  0.49696819D-03  0.58762639D-04 -0.28304496D-04
 -0.19312122D-04  0.70728897D-03 -0.33169377D-03 -0.37559520D-03  0.39006423D-03
  0.10847230D-02 -0.10546837D-02  0.93280180D-04 -0.11264640D-03  0.19366220D-04
  0.31946621D-05  0.36948819D-03 -0.30036041D-03 -0.20099555D-04 -0.36256729D-04
 -0.53451975D-04 -0.26284867D-04 -0.55492855D-04  0.84749932D-03  0.28242536D-03
 -0.46151155D-04 -0.43163585D-04 -0.77860950D-04 -0.11478756D-03 -0.25760887D-03
 -0.11934984D-03 -0.64311216D-03  0.53502462D-03 -0.82517008D-03
MO    2     MO 0.0        OCC NO =    2.0000000  ORB. ENERGY =  -19.130010
  0.11805624D-03  0.21712365D-03  0.35538491D-03  0.47892624D-03  0.47376006D-03
  0.52730846D-04  0.10154919D-03  0.27144560D-03 -0.38770518D-06  0.12053477D-04
  0.12375855D-04  0.93529736D-05  0.50468670D-04  0.51818487D-04  0.39161493D-04
 -0.31426837D-04 -0.32267368D-04 -0.24385859D-04  0.56703006D-04 -0.42450550D-04
 -0.68036867D-04  0.28997478D-04 -0.10514888D-03  0.27843303D-04  0.79588868D-04
  0.44715256D-04 -0.34032462D-04  0.84825949D-05  0.33540366D-05 -0.45629346D-06
 -0.99124973D-04  0.24052812D-03 -0.14140315D-03  0.39558977D-03 -0.13583140D-03
  0.47079417D-04  0.14571223D-04 -0.45143340D-04  0.30572117D-04 -0.18417203D-03
  0.83322752D-04 -0.41226026D-05 -0.48619894D-04 -0.87703352D-04 -0.12929786D-03
  0.28631742D-03 -0.15278976D-03 -0.21846096D-03 -0.88583388D-04 -0.44297948D-04
 -0.26235005D-05 -0.47324206D-05 -0.69768354D-05  0.97850674D-04  0.31846066D-05
 -0.67492262D-04 -0.41362856D-04  0.43121386D-04  0.66435354D+00  0.12218487D+01
  0.19999047D+01  0.26951252D+01  0.26660528D+01  0.29673929D+00  0.63041947D+00
  0.16851400D+01 -0.24068819D-02 -0.42884249D-02 -0.44031216D-02 -0.33276312D-02
 -0.62285241D-03 -0.63951100D-03 -0.48330638D-03  0.44336674D-02  0.45522487D-02
  0.34403331D-02  0.85713356D-02 -0.25037664D-03  0.74282992D-04  0.37224005D-03
 -0.13607702D-02 -0.54565796D-04 -0.21810475D-03  0.99266763D-04  0.50832184D-03
 -0.35566182D-05  0.63754674D-04  0.21966757D-04  0.50661190D-04  0.24828505D-03
 -0.29894624D-03 -0.12114714D-02 -0.41407783D-03 -0.14176058D-02 -0.67048110D-04
  0.22868927D-04  0.44179183D-04 -0.17984497D-03 -0.63529928D-04 -0.45230455D-03
 -0.20729719D-04 -0.37393455D-04 -0.55127810D-04 -0.30102178D-07 -0.44081636D-04
 -0.63497362D-03  0.60714968D-03  0.60059085D-04 -0.43785352D-04 -0.78982527D-04
 -0.11644106D-03 -0.23700839D-03 -0.13781296D-03 -0.11453673D-03 -0.77523433D-03
  0.85378906D-03 -0.89972917D-04 -0.16547409D-03 -0.27084564D-03 -0.36499885D-03
 -0.36106160D-03 -0.40187186D-04 -0.93261256D-04 -0.24929159D-03  0.35606265D-06
 -0.63930805D-04 -0.65640676D-04 -0.49607524D-04  0.10747113D-03  0.11034551D-03
  0.83392921D-04 -0.67980768D-06 -0.69798957D-06 -0.52750119D-06  0.21427054D-04
  0.71578553D-04 -0.10488297D-03  0.22570901D-05  0.27263418D-04 -0.48122391D-04
  0.55410525D-04  0.63668029D-05 -0.26692338D-03 -0.36916222D-04  0.43272665D-05
  0.12014071D-04 -0.84398409D-04  0.27983716D-03 -0.19543875D-03 -0.38495010D-03
  0.35622371D-05  0.49428781D-04  0.16674166D-04 -0.64343369D-04  0.47669203D-04
  0.12614804D-03 -0.50214201D-05 -0.12698739D-04 -0.50551874D-05 -0.91188369D-05
 -0.13443569D-04 -0.99290373D-05  0.21300435D-03  0.46681655D-04 -0.61510172D-04
 -0.70008707D-05 -0.39786591D-05 -0.71769334D-05 -0.10580692D-04  0.28800036D-05
  0.53280113D-04  0.12147726D-04 -0.32806000D-04 -0.85220438D-05
MO    3     MO 0.0        OCC NO =    2.0000000  ORB. ENERGY =  -19.128948
  0.66435363D+00  0.12218489D+01  0.19999050D+01  0.26951256D+01  0.26660532D+01
  0.29673933D+00  0.63041996D+00  0.16851413D+01 -0.24068837D-02  0.29593410D-02
  0.30384905D-02  0.22963199D-02 -0.33499384D-02 -0.34395346D-02 -0.25994065D-02
 -0.42899228D-02 -0.44046595D-02 -0.33287935D-02  0.85626642D-02  0.10274094D-03
 -0.26317252D-03 -0.35350209D-03 -0.13261806D-02  0.23106023D-03  0.65116052D-04
 -0.11163369D-03  0.41268499D-03 -0.59013430D-04 -0.28471014D-04 -0.63916768D-05
 -0.21803456D-03  0.63289613D-03 -0.41486157D-03  0.85043536D-03 -0.14896784D-02
 -0.24753217D-03 -0.41707250D-04  0.29843607D-04  0.11863643D-04  0.19727488D-03
 -0.43790183D-03 -0.15628404D-03 -0.17873560D-04 -0.32241352D-04 -0.47532251D-04
 -0.26757496D-04  0.27835402D-04 -0.21437624D-03 -0.86436250D-03 -0.61979076D-04
 -0.42152090D-04 -0.76036356D-04 -0.11209763D-03 -0.27955579D-03 -0.72689060D-04
  0.81857540D-03  0.30273021D-03 -0.81003148D-03 -0.11812274D-03 -0.21724596D-03
 -0.35558510D-03 -0.47919602D-03 -0.47402693D-03 -0.52760550D-04 -0.11994366D-03
 -0.32061488D-03  0.45793356D-06 -0.52667965D-04 -0.54076604D-04 -0.40868050D-04
 -0.10998639D-03 -0.11292805D-03 -0.85344654D-04  0.70097301D-05  0.71972099D-05
  0.54392457D-05  0.20278006D-04  0.47144876D-04  0.11642859D-03 -0.87078180D-05
  0.33622729D-04 -0.18917443D-04 -0.77160767D-04  0.20693747D-05 -0.36884229D-03
  0.22036840D-04 -0.36272503D-04 -0.29587279D-04  0.28951345D-04  0.17188840D-03
 -0.20083975D-03  0.49430424D-03  0.41595820D-04  0.85330333D-05  0.71845434D-05
 -0.57082684D-04  0.49898140D-04 -0.12736896D-03 -0.17106012D-04 -0.83461223D-06
 -0.26326245D-05 -0.47488790D-05 -0.70010994D-05 -0.19450782D-04  0.28972957D-03
  0.35590621D-04  0.71065088D-04 -0.49516463D-05 -0.51908507D-05 -0.93635541D-05
 -0.13804347D-04 -0.37566971D-05  0.11029037D-03  0.25313020D-04  0.29228912D-04
  0.14441983D-04  0.12422896D-04  0.22847624D-04  0.37396667D-04  0.50396752D-04
  0.49853122D-04  0.55487947D-05  0.36094676D-05  0.96482712D-05 -0.13780606D-07
 -0.32968149D-04 -0.33849903D-04 -0.25581850D-04 -0.27342565D-05 -0.28073859D-05
 -0.21216641D-05 -0.21709060D-04 -0.22289683D-04 -0.16845286D-04  0.48784175D-04
  0.63553006D-04 -0.16058669D-04  0.28918128D-04 -0.10360432D-03 -0.85704655D-04
 -0.10848825D-04  0.33733622D-04 -0.10889746D-03 -0.44061064D-05 -0.60591347D-06
  0.16338698D-04  0.30231215D-03 -0.17336632D-03 -0.12894584D-03  0.10414878D-03
  0.93696887D-04 -0.82665925D-04 -0.10870326D-03  0.79613733D-04  0.29089532D-04
  0.26149830D-04 -0.70113366D-04  0.55659061D-04 -0.46940655D-04 -0.84674244D-04
 -0.12483215D-03  0.27571584D-03 -0.11407702D-03  0.16521990D-03 -0.14818831D-03
  0.74184431D-05 -0.28796734D-05 -0.51945200D-05 -0.76580917D-05  0.89303959D-04
  0.65619178D-04  0.72702829D-04 -0.46330083D-04  0.44860944D-04
MO    4     MO 0.0        OCC NO =    2.0000000  ORB. ENERGY =   -1.028699
 -0.73540659D-01 -0.13525263D+00 -0.22137958D+00 -0.29833706D+00 -0.29511890D+00
 -0.32847575D-01 -0.13097077D+00 -0.35009082D+00  0.50003399D-03  0.51560213D-01
  0.52939224D-01  0.40008482D-01 -0.87173083D-01 -0.89504583D-01 -0.67642521D-01
 -0.94782306D-01 -0.97317320D-01 -0.73546947D-01  0.18679040D+00  0.18916418D-01
 -0.29666920D-01 -0.32337078D-01  0.49573876D-01 -0.62961426D-03 -0.27886460D-02
 -0.24908367D-02  0.27529754D-02  0.25993141D-03 -0.23362347D-03 -0.30999448D-03
 -0.58770444D-02  0.96267889D-02 -0.37497445D-02  0.12099097D-01 -0.26942799D-01
 -0.22241677D-02  0.30788020D-03  0.90020961D-03 -0.12080898D-02  0.11976263D-02
 -0.33184315D-02  0.72798909D-03  0.13196431D-01  0.23804479D-01  0.35094076D-01
  0.12678712D-01 -0.20708360D-02  0.19645664D-02  0.12691077D-01  0.82994312D-05
  0.12819271D-01  0.23124136D-01  0.34091072D-01  0.12630933D-01 -0.11424960D-02
 -0.88916503D-02 -0.47386873D-02  0.87898982D-02 -0.79975156D-01 -0.14708666D+00
 -0.24074936D+00 -0.32444029D+00 -0.32094055D+00 -0.35721600D-01 -0.14243381D+00
 -0.38073205D+00  0.54379879D-03 -0.10829288D+00 -0.11118925D+00 -0.84030568D-01
  0.36513045D-02  0.37489610D-02  0.28332535D-02  0.10773636D+00  0.11061784D+00
  0.83598730D-01  0.20312630D+00 -0.37597583D-01  0.75487098D-04  0.36673929D-01
  0.54139919D-01 -0.22652567D-02  0.21289668D-02  0.29741261D-02  0.25012755D-02
 -0.29579217D-03 -0.69408952D-04  0.27961645D-03  0.57463053D-03  0.12147784D-02
 -0.17894089D-02 -0.22801851D-01 -0.11088671D-01 -0.27057517D-01  0.20235017D-03
  0.78739931D-03 -0.98974948D-03 -0.14572797D-02 -0.23158783D-02 -0.26518831D-02
  0.14349345D-01  0.25884172D-01  0.38160092D-01  0.13573571D-01 -0.17517354D-02
  0.10933403D-01 -0.86404682D-02  0.28941318D-03  0.14003238D-01  0.25259844D-01
  0.37239669D-01  0.13426886D-01 -0.88470424D-03  0.23547906D-05  0.10152954D-01
 -0.10365598D-01 -0.86547122D-01 -0.15917352D+00 -0.26053296D+00 -0.35110120D+00
 -0.34731387D+00 -0.38657025D-01 -0.15414539D+00 -0.41203765D+00  0.58851252D-03
  0.56580607D-01  0.58093892D-01  0.43904090D-01  0.10768368D+00  0.11056374D+00
  0.83557848D-01 -0.10970187D+00 -0.11263592D+00 -0.85123883D-01  0.21989233D+00
  0.18570737D-01  0.37950879D-01 -0.37272690D-01  0.58633330D-01  0.29999964D-02
  0.11869481D-02 -0.30661984D-02  0.19847084D-02  0.25066720D-04  0.28905051D-03
 -0.16520667D-03  0.11677967D-01 -0.80359643D-02 -0.36420022D-02  0.10853090D-01
  0.20567970D-01 -0.25451736D-01  0.12804684D-02  0.26459089D-04 -0.13069275D-02
  0.12266322D-03  0.15655808D-02 -0.36430623D-02  0.15271550D-01  0.27547698D-01
  0.40612568D-01  0.14396276D-01 -0.14986164D-02 -0.14173227D-01 -0.58150057D-02
 -0.67593313D-03  0.15182113D-01  0.27386366D-01  0.40374722D-01  0.14720520D-01
 -0.62178223D-03  0.98327866D-02 -0.60078718D-02  0.10715897D-01
MO    5     MO 0.0        OCC NO =    2.0000000  ORB. ENERGY =   -1.012901
  0.50095265D-01  0.92132927D-01  0.15080187D+00  0.20322464D+00  0.20103246D+00
  0.22375486D-01  0.89297289D-01  0.23869572D+00 -0.34092860D-03 -0.54740605D-01
 -0.56204678D-01 -0.42476329D-01  0.62033916D-01  0.63693053D-01  0.48135621D-01
  0.67497606D-01  0.69302873D-01  0.52375207D-01 -0.12786437D+00 -0.17974603D-01
  0.21271309D-01  0.22892440D-01 -0.34000504D-01 -0.11142298D-02  0.17531196D-02
  0.18570788D-02  0.17345821D-02 -0.31295505D-03 -0.14533082D-03 -0.91223618D-04
  0.40074441D-02 -0.66891394D-02  0.26816953D-02 -0.81028871D-02  0.19417143D-01
  0.16168736D-02  0.66742242D-03 -0.10619776D-02  0.39455515D-03 -0.62874877D-03
  0.25587927D-02 -0.58490294D-03 -0.91796742D-02 -0.16558823D-01 -0.24412069D-01
 -0.85116838D-02 -0.15826675D-02 -0.16712501D-02 -0.84924472D-02 -0.12078390D-05
 -0.91426194D-02 -0.16491981D-01 -0.24313527D-01 -0.88619183D-02 -0.47061831D-03
  0.63625702D-02  0.33656169D-02 -0.62108707D-02  0.73064720D-01  0.13437730D+00
  0.21994686D+00  0.29640629D+00  0.29320895D+00  0.32634993D-01  0.13019239D+00
  0.34801019D+00 -0.49706222D-03  0.89971219D-01  0.92377557D-01  0.69813752D-01
  0.14490155D-01  0.14877703D-01  0.11243730D-01 -0.10184277D+00 -0.10456662D+00
 -0.79025560D-01 -0.18607897D+00  0.31079688D-01  0.51626920D-02 -0.34550766D-01
 -0.50490088D-01  0.20808240D-02 -0.87499948D-03 -0.26504755D-02 -0.43061804D-03
  0.16758381D-03  0.20051322D-03  0.15122511D-04  0.95493671D-03 -0.15129273D-02
  0.55799058D-03  0.17907878D-01  0.10073346D-01  0.26173529D-01 -0.39797389D-03
 -0.11558482D-03  0.51355871D-03  0.56295002D-03  0.18864013D-02  0.25646707D-02
 -0.10962950D-01 -0.19775598D-01 -0.29154444D-01 -0.99738684D-02  0.21911911D-02
 -0.10177457D-01  0.91567445D-02 -0.32519317D-03 -0.13223506D-01 -0.23853319D-01
 -0.35166079D-01 -0.13210510D-01 -0.17202201D-03 -0.76843973D-04 -0.97971477D-02
  0.98155360D-02 -0.11066712D+00 -0.20353392D+00 -0.33314142D+00 -0.44895032D+00
 -0.44410749D+00 -0.49430431D-01 -0.19725196D+00 -0.52726347D+00  0.75308931D-03
  0.48075807D-01  0.49361626D-01  0.37304735D-01  0.15740829D+00  0.16161827D+00
  0.12214198D+00 -0.14557069D+00 -0.14946407D+00 -0.11295652D+00  0.28235360D+00
  0.16987816D-01  0.53233557D-01 -0.49409597D-01  0.75743090D-01  0.22277629D-02
  0.32641862D-02 -0.37609769D-02 -0.11021901D-02 -0.39611959D-03  0.47152932D-03
  0.93659139D-05  0.13901903D-01 -0.98311552D-02 -0.40707479D-02  0.11086695D-01
  0.28143595D-01 -0.33922619D-01  0.10428985D-02 -0.16770217D-03 -0.87519636D-03
  0.19119339D-02  0.20640008D-02 -0.48743151D-02  0.17955306D-01  0.32388811D-01
  0.47749644D-01  0.16595944D-01 -0.62842741D-03 -0.19082478D-01 -0.67424735D-02
 -0.96320737D-03  0.20175468D-01  0.36393666D-01  0.53653857D-01  0.20213321D-01
  0.27087919D-03  0.13297495D-01 -0.82163113D-02  0.14384029D-01
MO    6     MO 0.0        OCC NO =    2.0000000  ORB. ENERGY =   -1.011216
 -0.10915346D+00 -0.20075007D+00 -0.32858486D+00 -0.44280977D+00 -0.43803318D+00
 -0.48754343D-01 -0.19452682D+00 -0.51997906D+00  0.74268500D-03  0.10361724D+00
  0.10638855D+00  0.80402474D-01 -0.11141070D+00 -0.11439045D+00 -0.86449859D-01
 -0.14638981D+00 -0.15030510D+00 -0.11359213D+00  0.27826254D+00  0.35246666D-01
 -0.38245463D-01 -0.49699314D-01  0.74910902D-01  0.11960769D-02 -0.34621350D-02
 -0.37621573D-02  0.33453772D-03  0.54044929D-03 -0.14525347D-04 -0.10334324D-03
 -0.72163384D-02  0.11676528D-01 -0.44601894D-02  0.18004483D-01 -0.42294471D-01
 -0.43987737D-02 -0.23619084D-03  0.12633673D-02 -0.10271764D-02  0.38913350D-03
 -0.50980599D-02  0.83805234D-03  0.17172152D-01  0.30976112D-01  0.45666953D-01
  0.15805935D-01 -0.21456041D-02  0.43696250D-02  0.19680366D-01 -0.68257562D-04
  0.19847445D-01  0.35801960D-01  0.52781525D-01  0.19990715D-01 -0.16492915D-03
 -0.13993043D-01 -0.73383817D-02  0.13621576D-01  0.89972577D-01  0.16547346D+00
  0.27084461D+00  0.36499747D+00  0.36106024D+00  0.40187035D-01  0.16037959D+00
  0.42870196D+00 -0.61231411D-03  0.13051651D+00  0.13400726D+00  0.10127513D+00
  0.23705260D-01  0.24339273D-01  0.18394251D-01 -0.12588546D+00 -0.12925235D+00
 -0.97681645D-01 -0.22964204D+00  0.44210231D-01  0.71650229D-02 -0.42825183D-01
 -0.61508410D-01  0.32876690D-02 -0.21012046D-03 -0.31981143D-02  0.20048595D-02
  0.12098708D-03  0.54470486D-03  0.11347290D-03  0.36514417D-04 -0.16445910D-02
  0.16080765D-02  0.23717905D-01  0.12897432D-01  0.32377623D-01 -0.61007726D-03
  0.24489055D-03  0.36518671D-03  0.25135304D-02  0.27414081D-02  0.33020989D-02
 -0.15117701D-01 -0.27270176D-01 -0.40203427D-01 -0.13995750D-01 -0.66661587D-03
 -0.12209636D-01  0.10711099D-01 -0.43005005D-03 -0.16410129D-01 -0.29601532D-01
 -0.43640461D-01 -0.16336676D-01 -0.60970127D-03 -0.41699331D-04 -0.12176754D-01
  0.12213195D-01  0.99003383D-02  0.18208251D-01  0.29803006D-01  0.40163331D-01
  0.39730089D-01  0.44220723D-02  0.17623178D-01  0.47107559D-01 -0.67283627D-04
  0.17207802D-03  0.17668035D-03  0.13352506D-03 -0.26424499D-02 -0.27131240D-02
 -0.20504262D-02  0.13334981D-01  0.13691634D-01  0.10347365D-01 -0.25065822D-01
  0.26628318D-03 -0.15009013D-02  0.44108874D-02 -0.71848237D-02 -0.23965788D-03
  0.23022264D-03  0.42794720D-03 -0.10537799D-02 -0.14487922D-03  0.12976961D-04
  0.34667760D-05 -0.76402023D-03  0.96228120D-03 -0.19826097D-03  0.47844433D-03
 -0.27251757D-02  0.27758442D-02  0.32717747D-03 -0.47507579D-03  0.14789832D-03
  0.58453053D-03 -0.17794381D-03  0.23423891D-03 -0.49700875D-03 -0.89653288D-03
 -0.13217258D-02 -0.38232160D-03  0.19863476D-02  0.21611803D-02  0.59166758D-03
  0.40061719D-04 -0.17677655D-02 -0.31887968D-02 -0.47011270D-02 -0.17633578D-02
 -0.46333896D-04 -0.11434852D-02  0.75321255D-03 -0.12324483D-02
MO    7     MO 0.0        OCC NO =    2.0000000  ORB. ENERGY =   -0.560590
  0.20664877D-02  0.38005900D-02  0.62207518D-02  0.83832520D-02  0.82928217D-02
  0.92301473D-03  0.38457938D-02  0.10279982D-01 -0.14682877D-04 -0.46453371D+00
 -0.47695796D+00 -0.36045795D+00 -0.51736529D+00 -0.53120256D+00 -0.40145297D+00
  0.28841989D+00  0.29613386D+00  0.22380129D+00 -0.75700751D-02 -0.14850283D+00
 -0.16581174D+00  0.92592103D-01  0.22670540D-02 -0.22270186D-01 -0.22925491D-01
  0.11538159D-01  0.34892752D-02 -0.31466670D-03 -0.67296052D-03 -0.99864336D-04
 -0.19021160D-01  0.39436220D-01 -0.20415060D-01 -0.69175940D-02  0.51168297D-01
  0.24496871D-01 -0.10049494D-02  0.55563112D-02 -0.45513617D-02  0.22743316D-02
  0.72050467D-02  0.38459922D-02  0.19372720D-01  0.34945623D-01  0.51519059D-01
  0.28239386D-01 -0.39906651D-03 -0.58751122D-02  0.11892330D-01  0.41070979D-02
 -0.23168309D-01 -0.41792325D-01 -0.61612903D-01 -0.34115827D-01 -0.51273914D-02
  0.10496118D-01  0.33173831D-03 -0.12885009D-01  0.30097383D-02  0.55353734D-02
  0.90602206D-02  0.12209796D-01  0.12078089D-01  0.13443258D-02  0.55499903D-02
  0.14835377D-01 -0.21189338D-04 -0.22695852D+00 -0.23302867D+00 -0.17610994D+00
  0.61532527D+00  0.63178254D+00  0.47746565D+00 -0.29524254D+00 -0.30313899D+00
 -0.22909537D+00 -0.10028857D-01 -0.72906413D-01  0.19697390D+00 -0.94990231D-01
  0.74651546D-03 -0.93277868D-02  0.28890292D-01 -0.11544375D-01  0.42335157D-02
 -0.48853401D-03  0.65272751D-03  0.25918009D-03  0.27260131D-01 -0.39261512D-02
 -0.23333980D-01 -0.43276586D-01  0.36832702D-02  0.53237060D-01  0.28704774D-02
  0.19175952D-02 -0.47880726D-02 -0.64892575D-02  0.41805127D-03  0.84841001D-02
  0.18828500D-01  0.33963927D-01  0.50071781D-01  0.27540293D-01 -0.73220772D-03
  0.12627726D-01 -0.66993956D-03 -0.36525546D-02 -0.21964979D-01 -0.39621688D-01
 -0.58412812D-01 -0.32490499D-01 -0.53230303D-02 -0.43360351D-02 -0.76936633D-02
  0.13004655D-01  0.21447437D-02  0.39445148D-02  0.64563258D-02  0.87007179D-02
  0.86068632D-02  0.95796843D-03  0.39870685D-02  0.10657616D-01 -0.15222250D-04
  0.72727930D+00  0.74673085D+00  0.56433710D+00 -0.11949107D+00 -0.12268694D+00
 -0.92719875D-01  0.33519245D+00  0.34415739D+00  0.26009476D+00 -0.77184411D-02
  0.23299838D+00 -0.37900272D-01  0.10770529D+00  0.19123642D-02  0.33042257D-01
 -0.67711896D-02  0.13403421D-01  0.37685439D-02  0.80243988D-03  0.11704465D-03
 -0.82371243D-04  0.24023291D-01 -0.73006452D-04 -0.23950285D-01  0.59836334D-01
 -0.46814243D-01  0.35186286D-01  0.52977882D-02 -0.25294124D-03 -0.50448470D-02
  0.54157478D-02 -0.70545617D-02  0.53062431D-02  0.21208976D-01  0.38257967D-01
  0.56402327D-01  0.31077478D-01 -0.49915212D-04 -0.82728012D-02 -0.11913641D-01
  0.43706788D-02 -0.24714726D-01 -0.44581839D-01 -0.65725382D-01 -0.36466062D-01
 -0.56006230D-02 -0.54187458D-02  0.94794565D-02 -0.13776628D-01
MO    8     MO 0.0        OCC NO =    2.0000000  ORB. ENERGY =   -0.533508
  0.31288963D-02  0.57545235D-02  0.94189223D-02  0.12693192D-01  0.12556271D-01
  0.13975488D-02  0.56362730D-02  0.15066014D-01 -0.21518757D-04  0.18183893D+00
  0.18670233D+00  0.14109910D+00  0.39585829D-01  0.40644577D-01  0.30716881D-01
 -0.10571377D+00 -0.10854115D+00 -0.82029286D-01 -0.78455875D-02  0.58694488D-01
  0.12566139D-01 -0.33569344D-01 -0.58927301D-02  0.93002779D-02  0.10353425D-02
 -0.45893924D-02 -0.65239725D-03  0.12965554D-03 -0.79267567D-05 -0.11347183D-03
  0.16730016D-02 -0.55839395D-02  0.39109379D-02  0.15925507D-02 -0.15714819D-01
 -0.29319075D-02 -0.98195828D-03 -0.31498166D-04  0.10134564D-02 -0.72117552D-03
 -0.19769021D-02  0.10414885D-02 -0.12660422D-02 -0.22837594D-02 -0.33668634D-02
 -0.11776269D-02  0.21633314D-03  0.52473966D-03 -0.27171744D-02 -0.23129530D-02
  0.66088406D-02  0.11921406D-01  0.17575294D-01  0.10170028D-01  0.13665388D-02
 -0.25763898D-02 -0.15337727D-02  0.37082906D-02 -0.41415044D-02 -0.76168662D-02
 -0.12467178D-01 -0.16801104D-01 -0.16619870D-01 -0.18498390D-02 -0.74812960D-02
 -0.19997845D-01  0.28562880D-04 -0.47821074D+00 -0.49100080D+00 -0.37107074D+00
  0.82792715D+00  0.85007060D+00  0.64243546D+00 -0.48504398D+00 -0.49801680D+00
 -0.37637303D+00  0.10759762D-01 -0.15442873D+00  0.26662562D+00 -0.15594241D+00
  0.70831711D-02 -0.21079358D-01  0.36005041D-01 -0.20821637D-01  0.63333244D-03
 -0.60701891D-03  0.62326521D-03 -0.55542578D-03  0.43993852D-01 -0.77466122D-02
 -0.36247240D-01 -0.67644847D-01  0.21450623D-02  0.73436877D-01  0.60900821D-02
  0.19558029D-03 -0.62856624D-02 -0.98874409D-02 -0.51472334D-03  0.98357803D-02
  0.29326269D-01  0.52900406D-01  0.77989142D-01  0.42148304D-01  0.38125056D-02
  0.18398003D-01 -0.10108436D-01 -0.77054879D-02 -0.30720950D-01 -0.55416210D-01
 -0.81698101D-01 -0.46585576D-01 -0.57790019D-02 -0.85304738D-02 -0.99330536D-02
  0.16834200D-01  0.17023924D-02  0.31309624D-02  0.51247148D-02  0.69062032D-02
  0.68317059D-02  0.76038837D-03  0.31186190D-02  0.83362107D-02 -0.11906592D-04
 -0.73345250D+00 -0.75306916D+00 -0.56912724D+00 -0.15019222D+00 -0.15420920D+00
 -0.11654263D+00 -0.33896097D+00 -0.34802670D+00 -0.26301897D+00 -0.52020845D-02
 -0.23651291D+00 -0.48825573D-01 -0.10918168D+00 -0.10405019D-02 -0.31498938D-01
 -0.85641778D-02 -0.15285765D-01 -0.12627968D-03 -0.57370231D-03 -0.43835849D-03
 -0.27119508D-03 -0.25941871D-01 -0.19154925D-03  0.26133420D-01 -0.69693345D-01
  0.42224824D-01 -0.24485388D-01 -0.43363804D-02  0.70216998D-06  0.43356782D-02
 -0.11332763D-01  0.66380576D-02 -0.13814370D-02 -0.25291558D-01 -0.45622362D-01
 -0.67259387D-01 -0.37172522D-01 -0.38494341D-02  0.14830594D-01  0.81779448D-02
 -0.45114662D-02  0.20929529D-01  0.37753885D-01  0.55659177D-01  0.31137899D-01
  0.44947801D-02  0.16452108D-02 -0.10777761D-01  0.10089061D-01
MO    9     MO 0.0        OCC NO =    2.0000000  ORB. ENERGY =   -0.531552
  0.29883670D-02  0.54960684D-02  0.89958868D-02  0.12123098D-01  0.11992326D-01
  0.13347801D-02  0.54153894D-02  0.14475583D-01 -0.20675444D-04  0.46639960D+00
  0.47887375D+00  0.36190580D+00  0.90574652D+00  0.92997130D+00  0.70281991D+00
 -0.42037519D+00 -0.43161840D+00 -0.32619287D+00 -0.80786338D-02  0.14984922D+00
  0.29219956D+00 -0.13531179D+00 -0.44119662D-02  0.19133650D-01  0.40017259D-01
 -0.18028792D-01 -0.11038294D-02  0.41568401D-04  0.96553949D-03 -0.27212504D-03
  0.31590969D-01 -0.63727341D-01  0.32136372D-01  0.13268566D-01 -0.63938659D-01
 -0.38366790D-01  0.43671196D-02 -0.98057502D-02  0.54386306D-02  0.11547504D-02
 -0.86112411D-02 -0.69575025D-02 -0.32069998D-01 -0.57849700D-01 -0.85285706D-01
 -0.46544681D-01 -0.42560965D-02  0.27414589D-04 -0.21946214D-01 -0.72695078D-02
  0.30216102D-01  0.54505537D-01  0.80355529D-01  0.45714541D-01  0.66379719D-02
 -0.14117967D-01  0.37192799D-02  0.15227782D-01  0.47033107D-03  0.86501146D-03
  0.14158385D-02  0.19080219D-02  0.18874401D-02  0.21007746D-03  0.80367323D-03
  0.21482551D-02 -0.30683483D-05 -0.31959470D+00 -0.32814247D+00 -0.24799159D+00
  0.20626646D+00  0.21178319D+00  0.16005380D+00 -0.13046711D+00 -0.13395654D+00
 -0.10123680D+00 -0.43036409D-03 -0.10327840D+00  0.66445679D-01 -0.42215606D-01
 -0.26949014D-02 -0.15694833D-01  0.75826542D-02 -0.63050021D-02  0.17608883D-03
 -0.48779157D-03  0.64939101D-04 -0.41010058D-06  0.17449769D-01 -0.44750356D-02
 -0.12974733D-01 -0.29013352D-01 -0.51109522D-02  0.19121849D-01  0.33707567D-02
 -0.14163161D-02 -0.19544406D-02 -0.57308757D-02 -0.29416702D-02  0.26504544D-02
  0.13527914D-01  0.24402427D-01  0.35975609D-01  0.20471364D-01  0.18406825D-02