 Entering Gaussian System, Link 0=g16
 Initial command:
 /software/gaussian//g16/l1.exe "/software/scratch/Gau-11741.inp" -scrdir="/software/scratch/"
 Entering Link 1 = /software/gaussian//g16/l1.exe PID=     11743.
  
 Copyright (c) 1988-2017, Gaussian, Inc.  All Rights Reserved.
  
 This is part of the Gaussian(R) 16 program.  It is based on
 the Gaussian(R) 09 system (copyright 2009, Gaussian, Inc.),
 the Gaussian(R) 03 system (copyright 2003, Gaussian, Inc.),
 the Gaussian(R) 98 system (copyright 1998, Gaussian, Inc.),
 the Gaussian(R) 94 system (copyright 1995, Gaussian, Inc.),
 the Gaussian 92(TM) system (copyright 1992, Gaussian, Inc.),
 the Gaussian 90(TM) system (copyright 1990, Gaussian, Inc.),
 the Gaussian 88(TM) system (copyright 1988, Gaussian, Inc.),
 the Gaussian 86(TM) system (copyright 1986, Carnegie Mellon
 University), and the Gaussian 82(TM) system (copyright 1983,
 Carnegie Mellon University). Gaussian is a federally registered
 trademark of Gaussian, Inc.
  
 This software contains proprietary and confidential information,
 including trade secrets, belonging to Gaussian, Inc.
  
 This software is provided under written license and may be
 used, copied, transmitted, or stored only in accord with that
 written license.
  
 The following legend is applicable only to US Government
 contracts under FAR:
  
                    RESTRICTED RIGHTS LEGEND
  
 Use, reproduction and disclosure by the US Government is
 subject to restrictions as set forth in subparagraphs (a)
 and (c) of the Commercial Computer Software - Restricted
 Rights clause in FAR 52.227-19.
  
 Gaussian, Inc.
 340 Quinnipiac St., Bldg. 40, Wallingford CT 06492
  
  
 ---------------------------------------------------------------
 Warning -- This program may not be used in any manner that
 competes with the business of Gaussian, Inc. or will provide
 assistance to any competitor of Gaussian, Inc.  The licensee
 of this program is prohibited from giving any competitor of
 Gaussian, Inc. access to this program.  By using this program,
 the user acknowledges that Gaussian, Inc. is engaged in the
 business of creating and licensing software in the field of
 computational chemistry and represents and warrants to the
 licensee that it is not a competitor of Gaussian, Inc. and that
 it will not use this program in any manner prohibited above.
 ---------------------------------------------------------------
  

 Cite this work as:
 Gaussian 16, Revision B.01,
 M. J. Frisch, G. W. Trucks, H. B. Schlegel, G. E. Scuseria, 
 M. A. Robb, J. R. Cheeseman, G. Scalmani, V. Barone, 
 G. A. Petersson, H. Nakatsuji, X. Li, M. Caricato, A. V. Marenich, 
 J. Bloino, B. G. Janesko, R. Gomperts, B. Mennucci, H. P. Hratchian, 
 J. V. Ortiz, A. F. Izmaylov, J. L. Sonnenberg, D. Williams-Young, 
 F. Ding, F. Lipparini, F. Egidi, J. Goings, B. Peng, A. Petrone, 
 T. Henderson, D. Ranasinghe, V. G. Zakrzewski, J. Gao, N. Rega, 
 G. Zheng, W. Liang, M. Hada, M. Ehara, K. Toyota, R. Fukuda, 
 J. Hasegawa, M. Ishida, T. Nakajima, Y. Honda, O. Kitao, H. Nakai, 
 T. Vreven, K. Throssell, J. A. Montgomery, Jr., J. E. Peralta, 
 F. Ogliaro, M. J. Bearpark, J. J. Heyd, E. N. Brothers, K. N. Kudin, 
 V. N. Staroverov, T. A. Keith, R. Kobayashi, J. Normand, 
 K. Raghavachari, A. P. Rendell, J. C. Burant, S. S. Iyengar, 
 J. Tomasi, M. Cossi, J. M. Millam, M. Klene, C. Adamo, R. Cammi, 
 J. W. Ochterski, R. L. Martin, K. Morokuma, O. Farkas, 
 J. B. Foresman, and D. J. Fox, Gaussian, Inc., Wallingford CT, 2016.
 
 ******************************************
 Gaussian 16:  EM64L-G16RevB.01 20-Dec-2017
                 1-Jul-2023 
 ******************************************
 %mem=1600mb
 %NProcShared=4
 Will use up to    4 processors via shared memory.
 %chk=water-3-molecules.chk
 ----------------------------------------------------------------
 # opt freq B3LYP/6-311+G(2d,p) scf=xqc geom=connectivity out=wfn
 ----------------------------------------------------------------
 1/18=20,19=15,26=3,38=1,57=2/1,3;
 2/9=110,12=2,17=6,18=5,40=1/2;
 3/5=4,6=6,7=112,11=2,25=1,30=1,71=1,74=-5/1,2,3;
 4//1;
 5/5=2,8=3,13=1,38=5/2,8;
 6/7=2,8=2,9=2,10=2,28=1/1;
 7//1,2,3,16;
 1/18=20,19=15,26=3/3(2);
 2/9=110/2;
 99/6=100/99;
 2/9=110/2;
 3/5=4,6=6,7=112,11=2,25=1,30=1,71=1,74=-5/1,2,3;
 4/5=5,16=3,69=1/1;
 5/5=2,8=3,13=1,38=5/2,8;
 7//1,2,3,16;
 1/18=20,19=15,26=3/3(-5);
 2/9=110/2;
 6/7=2,8=2,9=2,10=2,19=2,28=1/1;
 99/6=100,9=1/99;
 -------------------
 Title Card Required
 -------------------
 Symbolic Z-matrix:
 Charge =  0 Multiplicity = 1
 O                     0.92612  -1.01394   0.03408 
 H                    -0.04579  -1.18832  -0.05759 
 H                     1.37871  -1.83354  -0.10021 
 O                    -1.49805  -0.2329   -0.09212 
 H                    -1.02787   0.63947  -0.214 
 H                    -1.96883  -0.16514   0.73118 
 O                     0.54514   1.34306   0.00526 
 H                     0.88436   0.88737   0.79434 
 H                     0.9937    0.89032  -0.73145 
 
 Add virtual bond connecting atoms O7         and H5         Dist= 3.28D+00.
 Add virtual bond connecting atoms O4         and H2         Dist= 3.29D+00.

 GradGradGradGradGradGradGradGradGradGradGradGradGradGradGradGradGradGrad
 Berny optimization.
 Initialization pass.
                           ----------------------------
                           !    Initial Parameters    !
                           ! (Angstroms and Degrees)  !
 --------------------------                            --------------------------
 ! Name  Definition              Value          Derivative Info.                !
 --------------------------------------------------------------------------------
 ! R1    R(1,2)                  0.9917         estimate D2E/DX2                !
 ! R2    R(1,3)                  0.9458         estimate D2E/DX2                !
 ! R3    R(2,4)                  1.7387         estimate D2E/DX2                !
 ! R4    R(4,5)                  0.9985         estimate D2E/DX2                !
 ! R5    R(4,6)                  0.9508         estimate D2E/DX2                !
 ! R6    R(5,7)                  1.7371         estimate D2E/DX2                !
 ! R7    R(7,8)                  0.9723         estimate D2E/DX2                !
 ! R8    R(7,9)                  0.9741         estimate D2E/DX2                !
 ! A1    A(2,1,3)              107.6654         estimate D2E/DX2                !
 ! A2    A(1,2,4)              136.3699         estimate D2E/DX2                !
 ! A3    A(2,4,5)               95.1183         estimate D2E/DX2                !
 ! A4    A(2,4,6)              115.8186         estimate D2E/DX2                !
 ! A5    A(5,4,6)              106.0569         estimate D2E/DX2                !
 ! A6    A(4,5,7)              139.8976         estimate D2E/DX2                !
 ! A7    A(5,7,8)              103.2104         estimate D2E/DX2                !
 ! A8    A(5,7,9)               97.6585         estimate D2E/DX2                !
 ! A9    A(8,7,9)              103.6088         estimate D2E/DX2                !
 ! D1    D(3,1,2,4)           -173.603          estimate D2E/DX2                !
 ! D2    D(1,2,4,5)             13.4354         estimate D2E/DX2                !
 ! D3    D(1,2,4,6)            -97.1638         estimate D2E/DX2                !
 ! D4    D(2,4,5,7)            -19.5679         estimate D2E/DX2                !
 ! D5    D(6,4,5,7)             99.1696         estimate D2E/DX2                !
 ! D6    D(4,5,7,8)            -34.1366         estimate D2E/DX2                !
 ! D7    D(4,5,7,9)             71.8509         estimate D2E/DX2                !
 ! D8    D(5,7,8,9)            101.4009         estimate D2E/DX2                !
 --------------------------------------------------------------------------------
 Trust Radius=3.00D-01 FncErr=1.00D-07 GrdErr=1.00D-06 EigMax=2.50D+02 EigMin=1.00D-04
 Number of steps in this run=     35 maximum allowed number of steps=    100.
 GradGradGradGradGradGradGradGradGradGradGradGradGradGradGradGradGradGrad

                          Input orientation:                          
 ---------------------------------------------------------------------
 Center     Atomic      Atomic             Coordinates (Angstroms)
 Number     Number       Type             X           Y           Z
 ---------------------------------------------------------------------
      1          8           0        0.926119   -1.013938    0.034077
      2          1           0       -0.045786   -1.188324   -0.057592
      3          1           0        1.378705   -1.833542   -0.100208
      4          8           0       -1.498047   -0.232895   -0.092124
      5          1           0       -1.027874    0.639469   -0.213999
      6          1           0       -1.968830   -0.165143    0.731177
      7          8           0        0.545144    1.343064    0.005262
      8          1           0        0.884358    0.887370    0.794344
      9          1           0        0.993700    0.890324   -0.731445
 ---------------------------------------------------------------------
                    Distance matrix (angstroms):
                    1          2          3          4          5
     1  O    0.000000
     2  H    0.991672   0.000000
     3  H    0.945842   1.564384   0.000000
     4  O    2.550007   1.738706   3.292087   0.000000
     5  H    2.571650   2.080814   3.452587   0.998466   0.000000
     6  H    3.096309   2.316712   3.831546   0.950816   1.557612
     7  O    2.387767   2.600207   3.285844   2.582201   1.737097
     8  H    2.048102   2.428882   2.906538   2.777890   2.175969
     9  H    2.053486   2.419791   2.822434   2.806983   2.101771
                    6          7          8          9
     6  H    0.000000
     7  O    3.020216   0.000000
     8  H    3.041785   0.972303   0.000000
     9  H    3.468409   0.974122   1.529705   0.000000
 Stoichiometry    H6O3
 Framework group  C1[X(H6O3)]
 Deg. of freedom    21
 Full point group                 C1      NOp   1
 Largest Abelian subgroup         C1      NOp   1
 Largest concise Abelian subgroup C1      NOp   1
                         Standard orientation:                         
 ---------------------------------------------------------------------
 Center     Atomic      Atomic             Coordinates (Angstroms)
 Number     Number       Type             X           Y           Z
 ---------------------------------------------------------------------
      1          8           0        0.926119   -1.013938    0.034077
      2          1           0       -0.045785   -1.188324   -0.057592
      3          1           0        1.378706   -1.833541   -0.100208
      4          8           0       -1.498047   -0.232896   -0.092124
      5          1           0       -1.027874    0.639468   -0.213999
      6          1           0       -1.968830   -0.165144    0.731177
      7          8           0        0.545143    1.343064    0.005262
      8          1           0        0.884358    0.887370    0.794344
      9          1           0        0.993700    0.890324   -0.731445
 ---------------------------------------------------------------------
 Rotational constants (GHZ):           9.2280130           7.7644697           4.3542559
 Standard basis: 6-311+G(2d,p) (5D, 7F)
 There are   123 symmetry adapted cartesian basis functions of A   symmetry.
 There are   117 symmetry adapted basis functions of A   symmetry.
   117 basis functions,   174 primitive gaussians,   123 cartesian basis functions
    15 alpha electrons       15 beta electrons
       nuclear repulsion energy        90.7934605147 Hartrees.
 NAtoms=    9 NActive=    9 NUniq=    9 SFac= 1.00D+00 NAtFMM=   60 NAOKFM=F Big=F
 Integral buffers will be    131072 words long.
 Raffenetti 2 integral format.
 Two-electron integral symmetry is turned on.
 One-electron integrals computed using PRISM.
 NBasis=   117 RedAO= T EigKep=  8.70D-04  NBF=   117
 NBsUse=   117 1.00D-06 EigRej= -1.00D+00 NBFU=   117
 ExpMin= 8.45D-02 ExpMax= 8.59D+03 ExpMxC= 1.30D+03 IAcc=3 IRadAn=         5 AccDes= 0.00D+00
 Harris functional with IExCor=  402 and IRadAn=       5 diagonalized for initial guess.
 HarFok:  IExCor=  402 AccDes= 0.00D+00 IRadAn=         5 IDoV= 1 UseB2=F ITyADJ=14
 ICtDFT=  3500011 ScaDFX=  1.000000  1.000000  1.000000  1.000000
 FoFCou: FMM=F IPFlag=           0 FMFlag=      100000 FMFlg1=           0
         NFxFlg=           0 DoJE=T BraDBF=F KetDBF=T FulRan=T
         wScrn=  0.000000 ICntrl=       500 IOpCl=  0 I1Cent=   200000004 NGrid=           0
         NMat0=    1 NMatS0=      1 NMatT0=    0 NMatD0=    1 NMtDS0=    0 NMtDT0=    0
 Petite list used in FoFCou.
 Keep R1 ints in memory in canonical form, NReq=27620021.
 Requested convergence on RMS density matrix=1.00D-08 within  32 cycles.
 Requested convergence on MAX density matrix=1.00D-06.
 Requested convergence on             energy=1.00D-06.
 No special actions if energy rises.
 Integral accuracy reduced to 1.0D-05 until final iterations.
 Initial convergence to 1.0D-05 achieved.  Increase integral accuracy.
 SCF Done:  E(RB3LYP) =  -229.385372127     A.U. after   12 cycles
            NFock= 12  Conv=0.21D-08     -V/T= 2.0026
 QCSCF skips out because SCF is already converged.

 **********************************************************************

            Population analysis using the SCF Density.

 **********************************************************************

 Orbital symmetries:
       Occupied  (A) (A) (A) (A) (A) (A) (A) (A) (A) (A) (A) (A)
                 (A) (A) (A)
       Virtual   (A) (A) (A) (A) (A) (A) (A) (A) (A) (A) (A) (A)
                 (A) (A) (A) (A) (A) (A) (A) (A) (A) (A) (A) (A)
                 (A) (A) (A) (A) (A) (A) (A) (A) (A) (A) (A) (A)
                 (A) (A) (A) (A) (A) (A) (A) (A) (A) (A) (A) (A)
                 (A) (A) (A) (A) (A) (A) (A) (A) (A) (A) (A) (A)
                 (A) (A) (A) (A) (A) (A) (A) (A) (A) (A) (A) (A)
                 (A) (A) (A) (A) (A) (A) (A) (A) (A) (A) (A) (A)
                 (A) (A) (A) (A) (A) (A) (A) (A) (A) (A) (A) (A)
                 (A) (A) (A) (A) (A) (A)
 The electronic state is 1-A.
 Alpha  occ. eigenvalues --  -19.12359 -19.12178 -19.11955  -1.03388  -1.00437
 Alpha  occ. eigenvalues --   -1.00174  -0.55211  -0.53402  -0.52611  -0.43212
 Alpha  occ. eigenvalues --   -0.41047  -0.35811  -0.32982  -0.32229  -0.30128
 Alpha virt. eigenvalues --    0.00700   0.05400   0.06677   0.10225   0.12429
 Alpha virt. eigenvalues --    0.13581   0.14204   0.16214   0.17281   0.17622
 Alpha virt. eigenvalues --    0.20002   0.21623   0.22838   0.23946   0.26250
 Alpha virt. eigenvalues --    0.28612   0.33553   0.39522   0.46968   0.48788
 Alpha virt. eigenvalues --    0.50204   0.52716   0.53930   0.59275   0.78984
 Alpha virt. eigenvalues --    0.87616   0.88680   0.94496   0.96044   1.00742
 Alpha virt. eigenvalues --    1.02587   1.03419   1.06765   1.08883   1.11874
 Alpha virt. eigenvalues --    1.15965   1.19925   1.25172   1.29648   1.32339
 Alpha virt. eigenvalues --    1.34125   1.37274   1.43342   1.47235   1.56967
 Alpha virt. eigenvalues --    1.63387   1.68160   1.70412   1.72193   1.74546
 Alpha virt. eigenvalues --    1.76259   1.78774   1.84666   1.95184   1.97692
 Alpha virt. eigenvalues --    2.02795   2.11063   2.12976   2.16899   2.30093
 Alpha virt. eigenvalues --    2.35426   2.43618   2.44768   2.50367   2.53726
 Alpha virt. eigenvalues --    2.58003   2.63134   2.67310   2.71305   2.82730
 Alpha virt. eigenvalues --    2.94155   2.96090   3.00112   3.07885   3.11975
 Alpha virt. eigenvalues --    4.96238   4.97738   5.06589   5.37593   5.39441
 Alpha virt. eigenvalues --    5.45752   5.80364   5.82787   5.87489   6.77664
 Alpha virt. eigenvalues --    6.79398   6.79816   6.82107   6.84859   6.86196
 Alpha virt. eigenvalues --    6.88831   6.91533   6.93186   6.95889   7.03234
 Alpha virt. eigenvalues --    7.07269   7.11601   7.13708   7.20683  49.87975
 Alpha virt. eigenvalues --   49.89448  49.92137
          Condensed to atoms (all electrons):
               1          2          3          4          5          6
     1  O    8.299260   0.280643   0.251150  -0.035467  -0.002878   0.001449
     2  H    0.280643   0.388032  -0.015544  -0.042870   0.008198   0.003395
     3  H    0.251150  -0.015544   0.443701   0.000986   0.000040   0.000019
     4  O   -0.035467  -0.042870   0.000986   8.171161   0.290095   0.301591
     5  H   -0.002878   0.008198   0.000040   0.290095   0.354131  -0.015388
     6  H    0.001449   0.003395   0.000019   0.301591  -0.015388   0.434729
     7  O   -0.071073  -0.013809   0.010627  -0.022572   0.009524   0.003728
     8  H   -0.002156   0.003989   0.000362  -0.003497  -0.001104  -0.000321
     9  H    0.000465   0.003431   0.000410  -0.008397   0.005781   0.000900
               7          8          9
     1  O   -0.071073  -0.002156   0.000465
     2  H   -0.013809   0.003989   0.003431
     3  H    0.010627   0.000362   0.000410
     4  O   -0.022572  -0.003497  -0.008397
     5  H    0.009524  -0.001104   0.005781
     6  H    0.003728  -0.000321   0.000900
     7  O    7.914856   0.336430   0.330044
     8  H    0.336430   0.405408  -0.018961
     9  H    0.330044  -0.018961   0.410287
 Mulliken charges:
               1
     1  O   -0.721392
     2  H    0.384534
     3  H    0.308249
     4  O   -0.651030
     5  H    0.351602
     6  H    0.269898
     7  O   -0.497754
     8  H    0.279851
     9  H    0.276041
 Sum of Mulliken charges =   0.00000
 Mulliken charges with hydrogens summed into heavy atoms:
               1
     1  O   -0.028608
     4  O   -0.029530
     7  O    0.058138
 Electronic spatial extent (au):  <R**2>=            284.0571
 Charge=              0.0000 electrons
 Dipole moment (field-independent basis, Debye):
    X=              0.4803    Y=             -1.4295    Z=              0.9129  Tot=              1.7628
 Quadrupole moment (field-independent basis, Debye-Ang):
   XX=            -18.9705   YY=            -20.5415   ZZ=            -18.2711
   XY=             -2.5914   XZ=             -3.6321   YZ=              0.1140
 Traceless Quadrupole moment (field-independent basis, Debye-Ang):
   XX=              0.2905   YY=             -1.2805   ZZ=              0.9900
   XY=             -2.5914   XZ=             -3.6321   YZ=              0.1140
 Octapole moment (field-independent basis, Debye-Ang**2):
  XXX=              2.7081  YYY=            -18.3767  ZZZ=              1.3387  XYY=              2.4544
  XXY=             -1.3522  XXZ=              6.3557  XZZ=             -0.0739  YZZ=              3.0962
  YYZ=             -1.1288  XYZ=              1.5853
 Hexadecapole moment (field-independent basis, Debye-Ang**3):
 XXXX=           -157.0483 YYYY=           -141.1041 ZZZZ=            -21.7434 XXXY=             -7.9363
 XXXZ=            -17.3330 YYYX=            -19.0844 YYYZ=              1.6968 ZZZX=             -3.6110
 ZZZY=              0.1839 XXYY=            -43.7427 XXZZ=            -26.9599 YYZZ=            -26.7616
 XXYZ=             -1.1813 YYXZ=             -2.1307 ZZXY=              2.6940
 N-N= 9.079346051467D+01 E-N=-7.245188074947D+02  KE= 2.287970040138D+02
 Calling FoFJK, ICntrl=      2127 FMM=F ISym2X=0 I1Cent= 0 IOpClX= 0 NMat=1 NMatS=1 NMatT=0.
 ***** Axes restored to original set *****
 -------------------------------------------------------------------
 Center     Atomic                   Forces (Hartrees/Bohr)
 Number     Number              X              Y              Z
 -------------------------------------------------------------------
      1        8          -0.004572078   -0.014484574   -0.000089438
      2        1           0.010435164    0.008314317    0.002012130
      3        1           0.008669145   -0.017145602   -0.001641548
      4        8          -0.006439756    0.007575999   -0.015255230
      5        1          -0.002654373   -0.016357627    0.007344778
      6        1          -0.007960701    0.001513237    0.009760833
      7        8           0.007468288    0.027253243   -0.003039636
      8        1          -0.002152443    0.001142665   -0.010929753
      9        1          -0.002793246    0.002188341    0.011837864
 -------------------------------------------------------------------
 Cartesian Forces:  Max     0.027253243 RMS     0.009984378

 GradGradGradGradGradGradGradGradGradGradGradGradGradGradGradGradGradGrad
 Berny optimization.
 FormGI is forming the generalized inverse of G from B-inverse, IUseBI=4.
 Internal  Forces:  Max     0.088690562 RMS     0.029431047
 Search for a local minimum.
 Step number   1 out of a maximum of   35
 All quantities printed in internal units (Hartrees-Bohrs-Radians)
 Mixed Optimization -- RFO/linear search
 Second derivative matrix not updated -- first step.
 ITU=  0
     Eigenvalues ---    0.00230   0.00230   0.01049   0.01139   0.06868
     Eigenvalues ---    0.06889   0.06978   0.07659   0.11776   0.12020
     Eigenvalues ---    0.16000   0.16000   0.16000   0.25000   0.25000
     Eigenvalues ---    0.47959   0.49183   0.52544   0.52909   0.57497
     Eigenvalues ---    0.58634
 RFO step:  Lambda=-8.08038170D-02 EMin= 2.30000000D-03
 Linear search not attempted -- first point.
 Maximum step size (   0.300) exceeded in Quadratic search.
    -- Step size scaled by   0.552
 Iteration  1 RMS(Cart)=  0.34997439 RMS(Int)=  0.01889200
 Iteration  2 RMS(Cart)=  0.07785725 RMS(Int)=  0.00194880
 Iteration  3 RMS(Cart)=  0.00209285 RMS(Int)=  0.00166307
 Iteration  4 RMS(Cart)=  0.00000111 RMS(Int)=  0.00166307
 Iteration  5 RMS(Cart)=  0.00000000 RMS(Int)=  0.00166307
 Variable       Old X    -DE/DX   Delta X   Delta X   Delta X     New X
                                 (Linear)    (Quad)   (Total)
    R1        1.87399  -0.00171   0.00000  -0.00165  -0.00165   1.87234
    R2        1.78738   0.01924   0.00000   0.01593   0.01593   1.80331
    R3        3.28568   0.02496   0.00000   0.09222   0.09222   3.37790
    R4        1.88683   0.01173   0.00000   0.01156   0.01156   1.89839
    R5        1.79678   0.01250   0.00000   0.01053   0.01053   1.80731
    R6        3.28264   0.01440   0.00000   0.05315   0.05315   3.33579
    R7        1.83739  -0.01016   0.00000  -0.00920  -0.00920   1.82819
    R8        1.84082  -0.01126   0.00000  -0.01026  -0.01026   1.83057
    A1        1.87912  -0.00095   0.00000  -0.00219  -0.00219   1.87693
    A2        2.38010   0.06078   0.00000   0.10150   0.10150   2.48160
    A3        1.66013   0.08869   0.00000   0.21615   0.21319   1.87331
    A4        2.02142  -0.00548   0.00000   0.00385  -0.00031   2.02110
    A5        1.85104  -0.01651   0.00000  -0.01740  -0.02185   1.82920
    A6        2.44167   0.08509   0.00000   0.14209   0.14209   2.58376
    A7        1.80136  -0.00202   0.00000  -0.00539  -0.00541   1.79595
    A8        1.70446   0.00155   0.00000   0.00260   0.00254   1.70700
    A9        1.80832  -0.00576   0.00000  -0.01711  -0.01712   1.79119
    D1       -3.02994  -0.00203   0.00000  -0.01214  -0.01214  -3.04209
    D2        0.23449   0.01405   0.00000   0.04903   0.05157   0.28606
    D3       -1.69583  -0.01436   0.00000  -0.05112  -0.05366  -1.74949
    D4       -0.34152  -0.01820   0.00000  -0.08020  -0.08247  -0.42399
    D5        1.73084   0.00510   0.00000   0.00097   0.00324   1.73407
    D6       -0.59580   0.00271   0.00000   0.00719   0.00719  -0.58860
    D7        1.25403  -0.00331   0.00000  -0.01113  -0.01113   1.24290
    D8        1.76978  -0.00060   0.00000  -0.00374  -0.00368   1.76610
         Item               Value     Threshold  Converged?
 Maximum Force            0.088691     0.000450     NO 
 RMS     Force            0.029431     0.000300     NO 
 Maximum Displacement     1.048663     0.001800     NO 
 RMS     Displacement     0.421516     0.001200     NO 
 Predicted change in Energy=-3.645937D-02
 GradGradGradGradGradGradGradGradGradGradGradGradGradGradGradGradGradGrad

                          Input orientation:                          
 ---------------------------------------------------------------------
 Center     Atomic      Atomic             Coordinates (Angstroms)
 Number     Number       Type             X           Y           Z
 ---------------------------------------------------------------------
      1          8           0        0.964907   -1.485722    0.044702
      2          1           0       -0.017569   -1.427205   -0.069324
      3          1           0        1.221256   -2.388471   -0.128402
      4          8           0       -1.369627   -0.258149   -0.090003
      5          1           0       -0.971803    0.657607   -0.200998
      6          1           0       -1.885926   -0.204593    0.713269
      7          8           0        0.426230    1.717101   -0.003543
      8          1           0        0.839668    1.380934    0.803917
      9          1           0        0.980353    1.334883   -0.700125
 ---------------------------------------------------------------------
                    Distance matrix (angstroms):
                    1          2          3          4          5
     1  O    0.000000
     2  H    0.990800   0.000000
     3  H    0.954271   1.569143   0.000000
     4  O    2.641047   1.787507   3.354462   0.000000
     5  H    2.899151   2.296593   3.754113   1.004586   0.000000
     6  H    3.196173   2.366007   3.890027   0.956389   1.553993
     7  O    3.248165   3.176152   4.183703   2.670990   1.765223
     8  H    2.968132   3.063176   3.901697   2.892520   2.194193
     9  H    2.917331   3.003811   3.774687   2.903860   2.125733
                    6          7          8          9
     6  H    0.000000
     7  O    3.090758   0.000000
     8  H    3.154516   0.967435   0.000000
     9  H    3.547283   0.968695   1.511309   0.000000
 Stoichiometry    H6O3
 Framework group  C1[X(H6O3)]
 Deg. of freedom    21
 Full point group                 C1      NOp   1
 Largest Abelian subgroup         C1      NOp   1
 Largest concise Abelian subgroup C1      NOp   1
                         Standard orientation:                         
 ---------------------------------------------------------------------
 Center     Atomic      Atomic             Coordinates (Angstroms)
 Number     Number       Type             X           Y           Z
 ---------------------------------------------------------------------
      1          8           0        1.584282    0.722908    0.041362
      2          1           0        1.378027   -0.239452   -0.072693
      3          1           0        2.515074    0.840206   -0.133285
      4          8           0        0.018351   -1.399670   -0.091508
      5          1           0       -0.827099   -0.868208   -0.200849
      6          1           0       -0.111107   -1.902299    0.711788
      7          8           0       -1.663227    0.673578   -0.001355
      8          1           0       -1.267159    1.031253    0.805572
      9          1           0       -1.202981    1.163975   -0.698530
 ---------------------------------------------------------------------
 Rotational constants (GHZ):           8.9542710           5.1405996           3.3455767
 Standard basis: 6-311+G(2d,p) (5D, 7F)
 There are   123 symmetry adapted cartesian basis functions of A   symmetry.
 There are   117 symmetry adapted basis functions of A   symmetry.
   117 basis functions,   174 primitive gaussians,   123 cartesian basis functions
    15 alpha electrons       15 beta electrons
       nuclear repulsion energy        83.5428939814 Hartrees.
 NAtoms=    9 NActive=    9 NUniq=    9 SFac= 1.00D+00 NAtFMM=   60 NAOKFM=F Big=F
 Integral buffers will be    131072 words long.
 Raffenetti 2 integral format.
 Two-electron integral symmetry is turned on.
 One-electron integrals computed using PRISM.
 NBasis=   117 RedAO= T EigKep=  9.95D-04  NBF=   117
 NBsUse=   117 1.00D-06 EigRej= -1.00D+00 NBFU=   117
 Initial guess from the checkpoint file:  "water-3-molecules.chk"
 B after Tr=     0.000000    0.000000    0.000000
         Rot=    0.757560   -0.000813    0.001022   -0.652764 Ang= -81.50 deg.
 ExpMin= 8.45D-02 ExpMax= 8.59D+03 ExpMxC= 1.30D+03 IAcc=3 IRadAn=         5 AccDes= 0.00D+00
 Harris functional with IExCor=  402 and IRadAn=       5 diagonalized for initial guess.
 HarFok:  IExCor=  402 AccDes= 0.00D+00 IRadAn=         5 IDoV= 1 UseB2=F ITyADJ=14
 ICtDFT=  3500011 ScaDFX=  1.000000  1.000000  1.000000  1.000000
 FoFCou: FMM=F IPFlag=           0 FMFlag=      100000 FMFlg1=           0
         NFxFlg=           0 DoJE=T BraDBF=F KetDBF=T FulRan=T
         wScrn=  0.000000 ICntrl=       500 IOpCl=  0 I1Cent=   200000004 NGrid=           0
         NMat0=    1 NMatS0=      1 NMatT0=    0 NMatD0=    1 NMtDS0=    0 NMtDT0=    0
 Petite list used in FoFCou.
 Keep R1 ints in memory in canonical form, NReq=27620021.
 Requested convergence on RMS density matrix=1.00D-08 within  32 cycles.
 Requested convergence on MAX density matrix=1.00D-06.
 Requested convergence on             energy=1.00D-06.
 No special actions if energy rises.
 Integral accuracy reduced to 1.0D-05 until final iterations.
 Initial convergence to 1.0D-05 achieved.  Increase integral accuracy.
 SCF Done:  E(RB3LYP) =  -229.394892096     A.U. after   11 cycles
            NFock= 11  Conv=0.14D-08     -V/T= 2.0032
 QCSCF skips out because SCF is already converged.
 Calling FoFJK, ICntrl=      2127 FMM=F ISym2X=0 I1Cent= 0 IOpClX= 0 NMat=1 NMatS=1 NMatT=0.
 ***** Axes restored to original set *****
 -------------------------------------------------------------------
 Center     Atomic                   Forces (Hartrees/Bohr)
 Number     Number              X              Y              Z
 -------------------------------------------------------------------
      1        8          -0.009880291    0.004622402   -0.000177045
      2        1           0.014933863    0.004487914    0.002222910
      3        1           0.001974688   -0.007446601   -0.001662957
      4        8          -0.001956426    0.017652153   -0.009129637
      5        1          -0.004109119   -0.022884580    0.005620339
      6        1          -0.005313388   -0.000373863    0.004989522
      7        8           0.007454995    0.003332682   -0.002024081
      8        1          -0.001896639   -0.000236621   -0.000619547
      9        1          -0.001207683    0.000846513    0.000780497
 -------------------------------------------------------------------
 Cartesian Forces:  Max     0.022884580 RMS     0.007530335

 GradGradGradGradGradGradGradGradGradGradGradGradGradGradGradGradGradGrad
 Berny optimization.
 Using GEDIIS/GDIIS optimizer.
 FormGI is forming the generalized inverse of G from B-inverse, IUseBI=4.
 Internal  Forces:  Max     0.017586577 RMS     0.005550029
 Search for a local minimum.
 Step number   2 out of a maximum of   35
 All quantities printed in internal units (Hartrees-Bohrs-Radians)
 Mixed Optimization -- RFO/linear search
 Update second derivatives using D2CorX and points    1    2
 DE= -9.52D-03 DEPred=-3.65D-02 R= 2.61D-01
 Trust test= 2.61D-01 RLast= 3.19D-01 DXMaxT set to 3.00D-01
 ITU=  0  0
 Use linear search instead of GDIIS.
     Eigenvalues ---    0.00230   0.00230   0.01068   0.01140   0.06178
     Eigenvalues ---    0.06879   0.07071   0.07289   0.11749   0.13357
     Eigenvalues ---    0.15992   0.16000   0.20063   0.24969   0.41448
     Eigenvalues ---    0.49062   0.52202   0.52794   0.57311   0.57492
     Eigenvalues ---    0.58882
 RFO step:  Lambda=-5.09939318D-03 EMin= 2.29998792D-03
 Quartic linear search produced a step of -0.33928.
 Iteration  1 RMS(Cart)=  0.15620263 RMS(Int)=  0.02951417
 Iteration  2 RMS(Cart)=  0.05696929 RMS(Int)=  0.00320757
 Iteration  3 RMS(Cart)=  0.00435567 RMS(Int)=  0.00081752
 Iteration  4 RMS(Cart)=  0.00000822 RMS(Int)=  0.00081750
 Iteration  5 RMS(Cart)=  0.00000001 RMS(Int)=  0.00081750
 Variable       Old X    -DE/DX   Delta X   Delta X   Delta X     New X
                                 (Linear)    (Quad)   (Total)
    R1        1.87234  -0.00788   0.00056  -0.01149  -0.01093   1.86141
    R2        1.80331   0.00788  -0.00540   0.01895   0.01354   1.81685
    R3        3.37790   0.00423  -0.03129  -0.00865  -0.03993   3.33796
    R4        1.89839  -0.01759  -0.00392  -0.01704  -0.02097   1.87743
    R5        1.80731   0.00704  -0.00357   0.01469   0.01112   1.81843
    R6        3.33579   0.00560  -0.01803   0.02343   0.00539   3.34118
    R7        1.82819  -0.00125   0.00312  -0.00724  -0.00412   1.82407
    R8        1.83057  -0.00159   0.00348  -0.00831  -0.00483   1.82573
    A1        1.87693  -0.00032   0.00074  -0.00174  -0.00100   1.87593
    A2        2.48160   0.00664  -0.03444   0.06004   0.02561   2.50721
    A3        1.87331  -0.01206  -0.07233  -0.02946  -0.10301   1.77030
    A4        2.02110   0.00246   0.00011  -0.02553  -0.02750   1.99360
    A5        1.82920   0.00409   0.00741  -0.03157  -0.02607   1.80313
    A6        2.58376   0.00276  -0.04821   0.06714   0.01893   2.60269
    A7        1.79595  -0.00248   0.00183  -0.00975  -0.00790   1.78805
    A8        1.70700   0.00019  -0.00086   0.00351   0.00270   1.70970
    A9        1.79119   0.00084   0.00581   0.00584   0.01166   1.80285
    D1       -3.04209   0.00036   0.00412   0.07562   0.07974  -2.96235
    D2        0.28606  -0.00109  -0.01750  -0.04188  -0.05819   0.22787
    D3       -1.74949   0.00071   0.01821   0.03350   0.05052  -1.69897
    D4       -0.42399   0.00205   0.02798   0.30575   0.33224  -0.09176
    D5        1.73407   0.00085  -0.00110   0.24297   0.24336   1.97744
    D6       -0.58860  -0.00027  -0.00244   0.01689   0.01445  -0.57415
    D7        1.24290   0.00016   0.00378   0.02198   0.02575   1.26865
    D8        1.76610  -0.00024   0.00125   0.00268   0.00387   1.76997
         Item               Value     Threshold  Converged?
 Maximum Force            0.017587     0.000450     NO 
 RMS     Force            0.005550     0.000300     NO 
 Maximum Displacement     0.563893     0.001800     NO 
 RMS     Displacement     0.195977     0.001200     NO 
 Predicted change in Energy=-1.910142D-03
 GradGradGradGradGradGradGradGradGradGradGradGradGradGradGradGradGradGrad

                          Input orientation:                          
 ---------------------------------------------------------------------
 Center     Atomic      Atomic             Coordinates (Angstroms)
 Number     Number       Type             X           Y           Z
 ---------------------------------------------------------------------
      1          8           0        0.941798   -1.357608    0.161700
      2          1           0       -0.021832   -1.325950   -0.039975
      3          1           0        1.262591   -2.226326   -0.096723
      4          8           0       -1.418695   -0.249967   -0.145410
      5          1           0       -0.982491    0.642225   -0.118164
      6          1           0       -1.975864   -0.248239    0.639146
      7          8           0        0.487025    1.607912    0.066415
      8          1           0        1.004364    1.082534    0.689359
      9          1           0        0.890593    1.401803   -0.786856
 ---------------------------------------------------------------------
                    Distance matrix (angstroms):
                    1          2          3          4          5
     1  O    0.000000
     2  H    0.985017   0.000000
     3  H    0.961438   1.569599   0.000000
     4  O    2.625474   1.766375   3.331315   0.000000
     5  H    2.789363   2.191504   3.642724   0.993491   0.000000
     6  H    3.157754   2.332575   3.865478   0.962273   1.534026
     7  O    3.001701   2.979564   3.915291   2.669898   1.768077
     8  H    2.497325   2.717683   3.410742   2.888531   2.189419
     9  H    2.918343   2.971698   3.711871   2.910775   2.128979
                    6          7          8          9
     6  H    0.000000
     7  O    3.136741   0.000000
     8  H    3.264236   0.965257   0.000000
     9  H    3.601763   0.966136   1.514624   0.000000
 Stoichiometry    H6O3
 Framework group  C1[X(H6O3)]
 Deg. of freedom    21
 Full point group                 C1      NOp   1
 Largest Abelian subgroup         C1      NOp   1
 Largest concise Abelian subgroup C1      NOp   1
                         Standard orientation:                         
 ---------------------------------------------------------------------
 Center     Atomic      Atomic             Coordinates (Angstroms)
 Number     Number       Type             X           Y           Z
 ---------------------------------------------------------------------
      1          8           0        1.450004    0.751926    0.051967
      2          1           0        1.285768   -0.208337   -0.093569
      3          1           0        2.346616    0.939149   -0.240260
      4          8           0        0.031845   -1.452414   -0.099116
      5          1           0       -0.793689   -0.899988   -0.080577
      6          1           0       -0.023472   -1.960893    0.715966
      7          8           0       -1.551088    0.693304    0.037168
      8          1           0       -0.945924    1.168813    0.619738
      9          1           0       -1.315382    1.018727   -0.841446
 ---------------------------------------------------------------------
 Rotational constants (GHZ):           8.3630068           5.9818152           3.5794973
 Standard basis: 6-311+G(2d,p) (5D, 7F)
 There are   123 symmetry adapted cartesian basis functions of A   symmetry.
 There are   117 symmetry adapted basis functions of A   symmetry.
   117 basis functions,   174 primitive gaussians,   123 cartesian basis functions
    15 alpha electrons       15 beta electrons
       nuclear repulsion energy        85.0857199880 Hartrees.
 NAtoms=    9 NActive=    9 NUniq=    9 SFac= 1.00D+00 NAtFMM=   60 NAOKFM=F Big=F
 Integral buffers will be    131072 words long.
 Raffenetti 2 integral format.
 Two-electron integral symmetry is turned on.
 One-electron integrals computed using PRISM.
 NBasis=   117 RedAO= T EigKep=  9.00D-04  NBF=   117
 NBsUse=   117 1.00D-06 EigRej= -1.00D+00 NBFU=   117
 Initial guess from the checkpoint file:  "water-3-molecules.chk"
 B after Tr=     0.000000    0.000000    0.000000
         Rot=    0.999943    0.006070   -0.007096   -0.005233 Ang=   1.23 deg.
 ExpMin= 8.45D-02 ExpMax= 8.59D+03 ExpMxC= 1.30D+03 IAcc=3 IRadAn=         5 AccDes= 0.00D+00
 Harris functional with IExCor=  402 and IRadAn=       5 diagonalized for initial guess.
 HarFok:  IExCor=  402 AccDes= 0.00D+00 IRadAn=         5 IDoV= 1 UseB2=F ITyADJ=14
 ICtDFT=  3500011 ScaDFX=  1.000000  1.000000  1.000000  1.000000
 FoFCou: FMM=F IPFlag=           0 FMFlag=      100000 FMFlg1=           0
         NFxFlg=           0 DoJE=T BraDBF=F KetDBF=T FulRan=T
         wScrn=  0.000000 ICntrl=       500 IOpCl=  0 I1Cent=   200000004 NGrid=           0
         NMat0=    1 NMatS0=      1 NMatT0=    0 NMatD0=    1 NMtDS0=    0 NMtDT0=    0
 Petite list used in FoFCou.
 Keep R1 ints in memory in canonical form, NReq=27620021.
 Requested convergence on RMS density matrix=1.00D-08 within  32 cycles.
 Requested convergence on MAX density matrix=1.00D-06.
 Requested convergence on             energy=1.00D-06.
 No special actions if energy rises.
 Integral accuracy reduced to 1.0D-05 until final iterations.
 Initial convergence to 1.0D-05 achieved.  Increase integral accuracy.
 SCF Done:  E(RB3LYP) =  -229.397328148     A.U. after   11 cycles
            NFock= 11  Conv=0.58D-08     -V/T= 2.0031
 QCSCF skips out because SCF is already converged.
 Calling FoFJK, ICntrl=      2127 FMM=F ISym2X=0 I1Cent= 0 IOpClX= 0 NMat=1 NMatS=1 NMatT=0.
 ***** Axes restored to original set *****
 -------------------------------------------------------------------
 Center     Atomic                   Forces (Hartrees/Bohr)
 Number     Number              X              Y              Z
 -------------------------------------------------------------------
      1        8          -0.000783712   -0.003532077   -0.001323364
      2        1           0.008130555    0.004324583    0.002439220
      3        1           0.000209870   -0.000307893    0.000203511
      4        8          -0.008061083    0.012411595    0.000620883
      5        1           0.000299053   -0.014259618   -0.000154039
      6        1          -0.003384467   -0.002878389   -0.000052191
      7        8           0.003295769    0.007334347   -0.003015935
      8        1          -0.000300777   -0.003753239    0.000342123
      9        1           0.000594793    0.000660691    0.000939791
 -------------------------------------------------------------------
 Cartesian Forces:  Max     0.014259618 RMS     0.004861428

 GradGradGradGradGradGradGradGradGradGradGradGradGradGradGradGradGradGrad
 Berny optimization.
 Using GEDIIS/GDIIS optimizer.
 FormGI is forming the generalized inverse of G from B-inverse, IUseBI=4.
 Internal  Forces:  Max     0.010027012 RMS     0.003776780
 Search for a local minimum.
 Step number   3 out of a maximum of   35
 All quantities printed in internal units (Hartrees-Bohrs-Radians)
 Mixed Optimization -- RFO/linear search
 Update second derivatives using D2CorX and points    1    2    3
 DE= -2.44D-03 DEPred=-1.91D-03 R= 1.28D+00
 TightC=F SS=  1.41D+00  RLast= 4.46D-01 DXNew= 5.0454D-01 1.3369D+00
 Trust test= 1.28D+00 RLast= 4.46D-01 DXMaxT set to 5.05D-01
 ITU=  1  0  0
 Use linear search instead of GDIIS.
     Eigenvalues ---    0.00076   0.00230   0.00465   0.01188   0.05584
     Eigenvalues ---    0.06906   0.06937   0.07088   0.11895   0.12841
     Eigenvalues ---    0.13249   0.16001   0.16774   0.24901   0.26354
     Eigenvalues ---    0.48662   0.52219   0.52526   0.54649   0.57865
     Eigenvalues ---    0.82879
 RFO step:  Lambda=-5.95305206D-03 EMin= 7.64909674D-04
 Quartic linear search produced a step of  2.00000.
 Iteration  1 RMS(Cart)=  0.21193180 RMS(Int)=  0.18712538
 Iteration  2 RMS(Cart)=  0.20812294 RMS(Int)=  0.12881724
 Iteration  3 RMS(Cart)=  0.12925338 RMS(Int)=  0.06689688
 Iteration  4 RMS(Cart)=  0.11704947 RMS(Int)=  0.01667399
 Iteration  5 RMS(Cart)=  0.02541110 RMS(Int)=  0.01076970
 Iteration  6 RMS(Cart)=  0.00054255 RMS(Int)=  0.01076414
 Iteration  7 RMS(Cart)=  0.00000812 RMS(Int)=  0.01076414
 Iteration  8 RMS(Cart)=  0.00000038 RMS(Int)=  0.01076414
 Variable       Old X    -DE/DX   Delta X   Delta X   Delta X     New X
                                 (Linear)    (Quad)   (Total)
    R1        1.86141  -0.00067  -0.02186   0.00344  -0.01842   1.84300
    R2        1.81685   0.00029   0.02708  -0.00010   0.02699   1.84384
    R3        3.33796   0.00576  -0.07987   0.07146  -0.00841   3.32956
    R4        1.87743  -0.00734  -0.04193  -0.01151  -0.05345   1.82398
    R5        1.81843   0.00191   0.02224   0.00425   0.02649   1.84492
    R6        3.34118   0.00512   0.01079   0.06822   0.07901   3.42019
    R7        1.82407   0.00210  -0.00823   0.00611  -0.00212   1.82195
    R8        1.82573  -0.00072  -0.00967  -0.00403  -0.01370   1.81203
    A1        1.87593   0.00032  -0.00199   0.00463   0.00264   1.87857
    A2        2.50721   0.00711   0.05122   0.05300   0.10421   2.61142
    A3        1.77030  -0.01003  -0.20602  -0.10949  -0.32658   1.44372
    A4        1.99360   0.00091  -0.05501  -0.01798  -0.09127   1.90232
    A5        1.80313   0.00593  -0.05213   0.04311  -0.03271   1.77042
    A6        2.60269   0.00212   0.03786   0.02602   0.06388   2.66658
    A7        1.78805  -0.00524  -0.01581  -0.05428  -0.06996   1.71809
    A8        1.70970   0.00167   0.00541   0.02027   0.02593   1.73563
    A9        1.80285  -0.00076   0.02332  -0.01420   0.00953   1.81238
    D1       -2.96235  -0.00043   0.15947  -0.03492   0.12455  -2.83780
    D2        0.22787   0.00056  -0.11638  -0.05201  -0.14478   0.08309
    D3       -1.69897  -0.00111   0.10105  -0.03441   0.04302  -1.65595
    D4       -0.09176   0.00206   0.66447   0.25293   0.89787   0.80611
    D5        1.97744   0.00137   0.48673   0.20729   0.71354   2.69098
    D6       -0.57415   0.00189   0.02891   0.28792   0.31720  -0.25695
    D7        1.26865   0.00045   0.05151   0.26730   0.31844   1.58710
    D8        1.76997   0.00007   0.00775   0.00217   0.00974   1.77972
         Item               Value     Threshold  Converged?
 Maximum Force            0.010027     0.000450     NO 
 RMS     Force            0.003777     0.000300     NO 
 Maximum Displacement     1.716994     0.001800     NO 
 RMS     Displacement     0.543332     0.001200     NO 
 Predicted change in Energy=-6.690435D-03
 GradGradGradGradGradGradGradGradGradGradGradGradGradGradGradGradGradGrad

                          Input orientation:                          
 ---------------------------------------------------------------------
 Center     Atomic      Atomic             Coordinates (Angstroms)
 Number     Number       Type             X           Y           Z
 ---------------------------------------------------------------------
      1          8           0        0.846688   -1.315125    0.491011
      2          1           0       -0.044450   -1.226437    0.104796
      3          1           0        1.234206   -2.144293    0.152876
      4          8           0       -1.437809   -0.222136   -0.288037
      5          1           0       -0.872030    0.481599    0.052961
      6          1           0       -2.098738   -0.302309    0.426026
      7          8           0        0.704519    1.361948    0.176125
      8          1           0        1.272638    0.690767   -0.219235
      9          1           0        0.582466    2.002370   -0.527031
 ---------------------------------------------------------------------
                    Distance matrix (angstroms):
                    1          2          3          4          5
     1  O    0.000000
     2  H    0.975271   0.000000
     3  H    0.975718   1.574716   0.000000
     4  O    2.649616   1.761927   3.320956   0.000000
     5  H    2.524697   1.898674   3.367717   0.965209   0.000000
     6  H    3.115374   2.275369   3.817857   0.976290   1.502831
     7  O    2.699275   2.695511   3.546101   2.704503   1.809887
     8  H    2.170135   2.348486   2.859634   2.860882   2.171968
     9  H    3.480229   3.349242   4.252276   3.014475   2.182818
                    6          7          8          9
     6  H    0.000000
     7  O    3.269626   0.000000
     8  H    3.573337   0.964134   0.000000
     9  H    3.661792   0.958887   1.513729   0.000000
 Stoichiometry    H6O3
 Framework group  C1[X(H6O3)]
 Deg. of freedom    21
 Full point group                 C1      NOp   1
 Largest Abelian subgroup         C1      NOp   1
 Largest concise Abelian subgroup C1      NOp   1
                         Standard orientation:                         
 ---------------------------------------------------------------------
 Center     Atomic      Atomic             Coordinates (Angstroms)
 Number     Number       Type             X           Y           Z
 ---------------------------------------------------------------------
      1          8           0        1.220875    0.939965    0.087710
      2          1           0        1.159893   -0.012061   -0.114976
      3          1           0        1.979904    1.299829   -0.408674
      4          8           0        0.227447   -1.506982   -0.126796
      5          1           0       -0.477977   -0.925252    0.182389
      6          1           0        0.429271   -2.013797    0.682862
      7          8           0       -1.456261    0.595874    0.112916
      8          1           0       -0.873269    1.113259   -0.454524
      9          1           0       -2.154309    0.307172   -0.477715
 ---------------------------------------------------------------------
 Rotational constants (GHZ):           7.6832971           7.0789598           3.7711513
 Standard basis: 6-311+G(2d,p) (5D, 7F)
 There are   123 symmetry adapted cartesian basis functions of A   symmetry.
 There are   117 symmetry adapted basis functions of A   symmetry.
   117 basis functions,   174 primitive gaussians,   123 cartesian basis functions
    15 alpha electrons       15 beta electrons
       nuclear repulsion energy        86.5379085270 Hartrees.
 NAtoms=    9 NActive=    9 NUniq=    9 SFac= 1.00D+00 NAtFMM=   60 NAOKFM=F Big=F
 Integral buffers will be    131072 words long.
 Raffenetti 2 integral format.
 Two-electron integral symmetry is turned on.
 One-electron integrals computed using PRISM.
 NBasis=   117 RedAO= T EigKep=  6.02D-04  NBF=   117
 NBsUse=   117 1.00D-06 EigRej= -1.00D+00 NBFU=   117
 Initial guess from the checkpoint file:  "water-3-molecules.chk"
 B after Tr=     0.000000    0.000000    0.000000
         Rot=    0.997299    0.010526   -0.017903   -0.070451 Ang=   8.42 deg.
 ExpMin= 8.45D-02 ExpMax= 8.59D+03 ExpMxC= 1.30D+03 IAcc=3 IRadAn=         5 AccDes= 0.00D+00
 Harris functional with IExCor=  402 and IRadAn=       5 diagonalized for initial guess.
 HarFok:  IExCor=  402 AccDes= 0.00D+00 IRadAn=         5 IDoV= 1 UseB2=F ITyADJ=14
 ICtDFT=  3500011 ScaDFX=  1.000000  1.000000  1.000000  1.000000
 FoFCou: FMM=F IPFlag=           0 FMFlag=      100000 FMFlg1=           0
         NFxFlg=           0 DoJE=T BraDBF=F KetDBF=T FulRan=T
         wScrn=  0.000000 ICntrl=       500 IOpCl=  0 I1Cent=   200000004 NGrid=           0
         NMat0=    1 NMatS0=      1 NMatT0=    0 NMatD0=    1 NMtDS0=    0 NMtDT0=    0
 Petite list used in FoFCou.
 Keep R1 ints in memory in canonical form, NReq=27620021.
 Requested convergence on RMS density matrix=1.00D-08 within  32 cycles.
 Requested convergence on MAX density matrix=1.00D-06.
 Requested convergence on             energy=1.00D-06.
 No special actions if energy rises.
 Integral accuracy reduced to 1.0D-05 until final iterations.
 Initial convergence to 1.0D-05 achieved.  Increase integral accuracy.
 SCF Done:  E(RB3LYP) =  -229.394908867     A.U. after   13 cycles
            NFock= 13  Conv=0.36D-08     -V/T= 2.0029
 QCSCF skips out because SCF is already converged.
 Calling FoFJK, ICntrl=      2127 FMM=F ISym2X=0 I1Cent= 0 IOpClX= 0 NMat=1 NMatS=1 NMatT=0.
 ***** Axes restored to original set *****
 -------------------------------------------------------------------
 Center     Atomic                   Forces (Hartrees/Bohr)
 Number     Number              X              Y              Z
 -------------------------------------------------------------------
      1        8           0.015789386   -0.015659974   -0.005079057
      2        1          -0.001170161   -0.002592170   -0.000662835
      3        1          -0.007277242    0.010409017    0.004707656
      4        8          -0.023666512   -0.006713094    0.011945697
      5        1           0.012954496    0.010936093   -0.001094542
      6        1           0.002951230   -0.003615535   -0.011381685
      7        8          -0.001746066    0.008291665   -0.002912430
      8        1           0.002016888   -0.009336243    0.006793339
      9        1           0.000147981    0.008280241   -0.002316143
 -------------------------------------------------------------------
 Cartesian Forces:  Max     0.023666512 RMS     0.009009779

 GradGradGradGradGradGradGradGradGradGradGradGradGradGradGradGradGradGrad
 Berny optimization.
 Using GEDIIS/GDIIS optimizer.
 FormGI is forming the generalized inverse of G from B-inverse, IUseBI=4.
 Internal  Forces:  Max     0.021254215 RMS     0.009456382
 Search for a local minimum.
 Step number   4 out of a maximum of   35
 All quantities printed in internal units (Hartrees-Bohrs-Radians)
 Mixed Optimization -- RFO/linear search
 Update second derivatives using D2CorX and points    1    2    4    3
 DE=  2.42D-03 DEPred=-6.69D-03 R=-3.62D-01
 Trust test=-3.62D-01 RLast= 1.31D+00 DXMaxT set to 2.52D-01
 ITU= -1  1  0  0
 Use linear search instead of GDIIS.
     Eigenvalues ---    0.00210   0.00294   0.00434   0.01189   0.05053
     Eigenvalues ---    0.05371   0.06963   0.08020   0.08948   0.10440
     Eigenvalues ---    0.12205   0.13969   0.16116   0.17728   0.24760
     Eigenvalues ---    0.48526   0.51700   0.52672   0.54669   0.57876
     Eigenvalues ---    1.01777
 RFO step:  Lambda=-6.37341597D-03 EMin= 2.09962895D-03
 Quartic linear search produced a step of -0.52945.
 Maximum step size (   0.252) exceeded in Quadratic search.
    -- Step size scaled by   0.763
 Iteration  1 RMS(Cart)=  0.21887210 RMS(Int)=  0.04471005
 Iteration  2 RMS(Cart)=  0.14696080 RMS(Int)=  0.00914043
 Iteration  3 RMS(Cart)=  0.00912104 RMS(Int)=  0.00117906
 Iteration  4 RMS(Cart)=  0.00008149 RMS(Int)=  0.00117751
 Iteration  5 RMS(Cart)=  0.00000002 RMS(Int)=  0.00117751
 Variable       Old X    -DE/DX   Delta X   Delta X   Delta X     New X
                                 (Linear)    (Quad)   (Total)
    R1        1.84300   0.00811   0.00975  -0.00193   0.00782   1.85082
    R2        1.84384  -0.01337  -0.01429   0.01301  -0.00127   1.84256
    R3        3.32956   0.01005   0.00445   0.11084   0.11529   3.44484
    R4        1.82398   0.02125   0.02830   0.00177   0.03006   1.85404
    R5        1.84492  -0.01003  -0.01402   0.01122  -0.00281   1.84211
    R6        3.42019   0.00399  -0.04183   0.08815   0.04632   3.46651
    R7        1.82195   0.00490   0.00112  -0.00360  -0.00248   1.81947
    R8        1.81203   0.00721   0.00725  -0.00804  -0.00079   1.81125
    A1        1.87857  -0.00325  -0.00140  -0.00547  -0.00687   1.87170
    A2        2.61142   0.01297  -0.05518   0.12356   0.06838   2.67981
    A3        1.44372   0.02086   0.17291   0.07322   0.24750   1.69122
    A4        1.90232   0.00389   0.04832  -0.01449   0.03456   1.93688
    A5        1.77042   0.00442   0.01732   0.00546   0.02624   1.79667
    A6        2.66658   0.01518  -0.03382   0.13763   0.10381   2.77038
    A7        1.71809  -0.00479   0.03704  -0.03877  -0.00179   1.71631
    A8        1.73563   0.00313  -0.01373   0.02345   0.00963   1.74526
    A9        1.81238   0.00808  -0.00505   0.00933   0.00407   1.81646
    D1       -2.83780  -0.00227  -0.06594  -0.00663  -0.07257  -2.91037
    D2        0.08309   0.00333   0.07665  -0.09049  -0.01701   0.06608
    D3       -1.65595  -0.00790  -0.02278  -0.12128  -0.14089  -1.79684
    D4        0.80611  -0.00866  -0.47538   0.22387  -0.25155   0.55456
    D5        2.69098  -0.00142  -0.37779   0.22122  -0.15653   2.53445
    D6       -0.25695  -0.00984  -0.16794   0.00920  -0.15893  -0.41589
    D7        1.58710  -0.00188  -0.16860   0.01524  -0.15317   1.43393
    D8        1.77972   0.00358  -0.00516   0.01554   0.01044   1.79016
         Item               Value     Threshold  Converged?
 Maximum Force            0.021254     0.000450     NO 
 RMS     Force            0.009456     0.000300     NO 
 Maximum Displacement     0.768245     0.001800     NO 
 RMS     Displacement     0.356040     0.001200     NO 
 Predicted change in Energy=-6.619376D-03
 GradGradGradGradGradGradGradGradGradGradGradGradGradGradGradGradGradGrad

                          Input orientation:                          
 ---------------------------------------------------------------------
 Center     Atomic      Atomic             Coordinates (Angstroms)
 Number     Number       Type             X           Y           Z
 ---------------------------------------------------------------------
      1          8           0        0.918185   -1.632670    0.397032
      2          1           0        0.009092   -1.406766    0.111094
      3          1           0        1.089422   -2.550831    0.117089
      4          8           0       -1.356896   -0.245510   -0.218518
      5          1           0       -0.863010    0.577813   -0.016506
      6          1           0       -2.023444   -0.280143    0.491946
      7          8           0        0.558807    1.729117    0.117479
      8          1           0        1.264976    1.075512    0.151441
      9          1           0        0.590355    2.059863   -0.781564
 ---------------------------------------------------------------------
                    Distance matrix (angstroms):
                    1          2          3          4          5
     1  O    0.000000
     2  H    0.979410   0.000000
     3  H    0.975043   1.573541   0.000000
     4  O    2.734797   1.822933   3.378108   0.000000
     5  H    2.868781   2.171497   3.690291   0.981118   0.000000
     6  H    3.239062   2.354895   3.871237   0.974805   1.530104
     7  O    3.392479   3.183707   4.312714   2.771636   1.834398
     8  H    2.741319   2.782189   3.630752   2.959085   2.191857
     9  H    3.889905   3.626599   4.723890   3.069781   2.212251
                    6          7          8          9
     6  H    0.000000
     7  O    3.293231   0.000000
     8  H    3.573157   0.962823   0.000000
     9  H    3.732211   0.958471   1.514780   0.000000
 Stoichiometry    H6O3
 Framework group  C1[X(H6O3)]
 Deg. of freedom    21
 Full point group                 C1      NOp   1
 Largest Abelian subgroup         C1      NOp   1
 Largest concise Abelian subgroup C1      NOp   1
                         Standard orientation:                         
 ---------------------------------------------------------------------
 Center     Atomic      Atomic             Coordinates (Angstroms)
 Number     Number       Type             X           Y           Z
 ---------------------------------------------------------------------
      1          8           0        1.658375    0.780726    0.056516
      2          1           0        1.341039   -0.136319   -0.076037
      3          1           0        2.556947    0.832622   -0.318429
      4          8           0        0.057319   -1.430143   -0.110192
      5          1           0       -0.705461   -0.844518    0.084241
      6          1           0        0.108213   -1.993246    0.683893
      7          8           0       -1.732139    0.675532    0.104146
      8          1           0       -1.028152    1.321087   -0.017058
      9          1           0       -2.141023    0.611456   -0.760363
 ---------------------------------------------------------------------
 Rotational constants (GHZ):           8.5778946           4.6735781           3.0804824
 Standard basis: 6-311+G(2d,p) (5D, 7F)
 There are   123 symmetry adapted cartesian basis functions of A   symmetry.
 There are   117 symmetry adapted basis functions of A   symmetry.
   117 basis functions,   174 primitive gaussians,   123 cartesian basis functions
    15 alpha electrons       15 beta electrons
       nuclear repulsion energy        81.5713263809 Hartrees.
 NAtoms=    9 NActive=    9 NUniq=    9 SFac= 1.00D+00 NAtFMM=   60 NAOKFM=F Big=F
 Integral buffers will be    131072 words long.
 Raffenetti 2 integral format.
 Two-electron integral symmetry is turned on.
 One-electron integrals computed using PRISM.
 NBasis=   117 RedAO= T EigKep=  9.31D-04  NBF=   117
 NBsUse=   117 1.00D-06 EigRej= -1.00D+00 NBFU=   117
 Lowest energy guess from the checkpoint file:  "water-3-molecules.chk"
 B after Tr=     0.000000    0.000000    0.000000
         Rot=    0.999815    0.010525   -0.011716   -0.011028 Ang=   2.20 deg.
 B after Tr=     0.000000    0.000000    0.000000
         Rot=    0.998269   -0.003389    0.005386    0.058476 Ang=  -6.74 deg.
 Keep R1 ints in memory in canonical form, NReq=27620021.
 Requested convergence on RMS density matrix=1.00D-08 within  32 cycles.
 Requested convergence on MAX density matrix=1.00D-06.
 Requested convergence on             energy=1.00D-06.
 No special actions if energy rises.
 Integral accuracy reduced to 1.0D-05 until final iterations.
 Initial convergence to 1.0D-05 achieved.  Increase integral accuracy.
 SCF Done:  E(RB3LYP) =  -229.399163761     A.U. after   12 cycles
            NFock= 12  Conv=0.16D-08     -V/T= 2.0033
 QCSCF skips out because SCF is already converged.
 Calling FoFJK, ICntrl=      2127 FMM=F ISym2X=0 I1Cent= 0 IOpClX= 0 NMat=1 NMatS=1 NMatT=0.
 ***** Axes restored to original set *****
 -------------------------------------------------------------------
 Center     Atomic                   Forces (Hartrees/Bohr)
 Number     Number              X              Y              Z
 -------------------------------------------------------------------
      1        8           0.003031365   -0.011069748   -0.003659224
      2        1           0.003273712   -0.000210451    0.000489821
      3        1          -0.003170263    0.012710441    0.003105912
      4        8          -0.011554780    0.004259843    0.012251567
      5        1           0.002569337   -0.003087859   -0.002518900
      6        1           0.004812668   -0.002357164   -0.009052446
      7        8          -0.002542770    0.000228694    0.001459727
      8        1           0.003055266   -0.005490598    0.003431484
      9        1           0.000525464    0.005016842   -0.005507941
 -------------------------------------------------------------------
 Cartesian Forces:  Max     0.012710441 RMS     0.005734773

 GradGradGradGradGradGradGradGradGradGradGradGradGradGradGradGradGradGrad
 Berny optimization.
 Using GEDIIS/GDIIS optimizer.
 FormGI is forming the generalized inverse of G from B-inverse, IUseBI=4.
 Internal  Forces:  Max     0.013417347 RMS     0.004918482
 Search for a local minimum.
 Step number   5 out of a maximum of   35
 All quantities printed in internal units (Hartrees-Bohrs-Radians)
 Mixed Optimization -- RFO/linear search
 Update second derivatives using D2CorX and points    4    3    5
 DE= -1.84D-03 DEPred=-6.62D-03 R= 2.77D-01
 Trust test= 2.77D-01 RLast= 9.60D-01 DXMaxT set to 2.52D-01
 ITU=  0 -1  1  0  0
 Use linear search instead of GDIIS.
     Eigenvalues ---    0.00218   0.00374   0.00785   0.01298   0.02730
     Eigenvalues ---    0.06961   0.07173   0.07707   0.10162   0.11380
     Eigenvalues ---    0.12388   0.14150   0.16101   0.17759   0.24703
     Eigenvalues ---    0.48544   0.52397   0.52708   0.56141   0.57869
     Eigenvalues ---    1.01024
 RFO step:  Lambda=-6.13884554D-03 EMin= 2.18240599D-03
 Quartic linear search produced a step of -0.31095.
 Maximum step size (   0.252) exceeded in Quadratic search.
    -- Step size scaled by   0.610
 Iteration  1 RMS(Cart)=  0.26232660 RMS(Int)=  0.02332584
 Iteration  2 RMS(Cart)=  0.04107836 RMS(Int)=  0.00134678
 Iteration  3 RMS(Cart)=  0.00102725 RMS(Int)=  0.00102363
 Iteration  4 RMS(Cart)=  0.00000096 RMS(Int)=  0.00102363
 Variable       Old X    -DE/DX   Delta X   Delta X   Delta X     New X
                                 (Linear)    (Quad)   (Total)
    R1        1.85082  -0.00067   0.00330   0.00485   0.00814   1.85896
    R2        1.84256  -0.01342  -0.00799  -0.01965  -0.02764   1.81492
    R3        3.44484   0.00143  -0.03323   0.12245   0.08922   3.53406
    R4        1.85404  -0.00163   0.00727  -0.01203  -0.00476   1.84929
    R5        1.84211  -0.00980  -0.00736  -0.00960  -0.01697   1.82515
    R6        3.46651   0.00061  -0.03897   0.09640   0.05743   3.52394
    R7        1.81947   0.00609   0.00143   0.01630   0.01773   1.83720
    R8        1.81125   0.00691   0.00450   0.00929   0.01379   1.82504
    A1        1.87170  -0.00191   0.00131  -0.00568  -0.00437   1.86734
    A2        2.67981  -0.00089  -0.05367   0.02920  -0.02447   2.65534
    A3        1.69122  -0.01090   0.02459  -0.15352  -0.12760   1.56362
    A4        1.93688   0.00283   0.01764   0.00908   0.02951   1.96639
    A5        1.79667   0.00602   0.00201   0.08582   0.08926   1.88593
    A6        2.77038  -0.00499  -0.05214  -0.01763  -0.06977   2.70061
    A7        1.71631  -0.00298   0.02231  -0.06202  -0.03964   1.67666
    A8        1.74526   0.00215  -0.01106   0.03617   0.02530   1.77056
    A9        1.81646   0.00305  -0.00423   0.02450   0.02034   1.83680
    D1       -2.91037   0.00068  -0.01616  -0.04353  -0.05970  -2.97007
    D2        0.06608   0.00115   0.05031  -0.04229   0.00702   0.07311
    D3       -1.79684  -0.00138   0.03043  -0.07166  -0.04023  -1.83707
    D4        0.55456  -0.00249  -0.20097   0.00878  -0.18969   0.36487
    D5        2.53445  -0.00143  -0.17321  -0.00830  -0.18401   2.35044
    D6       -0.41589  -0.00268  -0.04921  -0.13005  -0.17923  -0.59512
    D7        1.43393   0.00024  -0.05139  -0.11131  -0.16273   1.27119
    D8        1.79016   0.00202  -0.00628   0.02512   0.01866   1.80882
         Item               Value     Threshold  Converged?
 Maximum Force            0.013417     0.000450     NO 
 RMS     Force            0.004918     0.000300     NO 
 Maximum Displacement     0.686788     0.001800     NO 
 RMS     Displacement     0.292491     0.001200     NO 
 Predicted change in Energy=-3.421763D-03
 GradGradGradGradGradGradGradGradGradGradGradGradGradGradGradGradGradGrad

                          Input orientation:                          
 ---------------------------------------------------------------------
 Center     Atomic      Atomic             Coordinates (Angstroms)
 Number     Number       Type             X           Y           Z
 ---------------------------------------------------------------------
      1          8           0        0.981550   -1.361136    0.279619
      2          1           0        0.027740   -1.254119    0.063982
      3          1           0        1.219983   -2.264452    0.056975
      4          8           0       -1.507692   -0.212429   -0.170060
      5          1           0       -0.976304    0.593867   -0.011395
      6          1           0       -2.135183   -0.305524    0.558233
      7          8           0        0.601942    1.583262    0.076184
      8          1           0        1.166053    0.850486    0.376181
      9          1           0        0.809399    1.696430   -0.860228
 ---------------------------------------------------------------------
                    Distance matrix (angstroms):
                    1          2          3          4          5
     1  O    0.000000
     2  H    0.983720   0.000000
     3  H    0.960416   1.562774   0.000000
     4  O    2.778140   1.870146   3.420899   0.000000
     5  H    2.782071   2.104481   3.605320   0.978602   0.000000
     6  H    3.302418   2.412955   3.917371   0.965827   1.573652
     7  O    2.975730   2.894925   3.897081   2.781312   1.864788
     8  H    2.221405   2.413004   3.131715   2.928665   2.192204
     9  H    3.267660   3.189184   4.086371   3.080420   2.263824
                    6          7          8          9
     6  H    0.000000
     7  O    3.360318   0.000000
     8  H    3.502522   0.972203   0.000000
     9  H    3.832808   0.965770   1.539977   0.000000
 Stoichiometry    H6O3
 Framework group  C1[X(H6O3)]
 Deg. of freedom    21
 Full point group                 C1      NOp   1
 Largest Abelian subgroup         C1      NOp   1
 Largest concise Abelian subgroup C1      NOp   1
                         Standard orientation:                         
 ---------------------------------------------------------------------
 Center     Atomic      Atomic             Coordinates (Angstroms)
 Number     Number       Type             X           Y           Z
 ---------------------------------------------------------------------
      1          8           0        1.466837    0.782161    0.043920
      2          1           0        1.220617   -0.162079   -0.080541
      3          1           0        2.371853    0.878959   -0.262634
      4          8           0       -0.025628   -1.556232   -0.106176
      5          1           0       -0.741027   -0.910431    0.063548
      6          1           0        0.045727   -2.133452    0.664894
      7          8           0       -1.508593    0.788918    0.085607
      8          1           0       -0.687127    1.270137    0.282583
      9          1           0       -1.670973    0.938082   -0.854657
 ---------------------------------------------------------------------
 Rotational constants (GHZ):           7.3365607           6.0567566           3.3888898
 Standard basis: 6-311+G(2d,p) (5D, 7F)
 There are   123 symmetry adapted cartesian basis functions of A   symmetry.
 There are   117 symmetry adapted basis functions of A   symmetry.
   117 basis functions,   174 primitive gaussians,   123 cartesian basis functions
    15 alpha electrons       15 beta electrons
       nuclear repulsion energy        83.5307760573 Hartrees.
 NAtoms=    9 NActive=    9 NUniq=    9 SFac= 1.00D+00 NAtFMM=   60 NAOKFM=F Big=F
 Integral buffers will be    131072 words long.
 Raffenetti 2 integral format.
 Two-electron integral symmetry is turned on.
 One-electron integrals computed using PRISM.
 NBasis=   117 RedAO= T EigKep=  9.46D-04  NBF=   117
 NBsUse=   117 1.00D-06 EigRej= -1.00D+00 NBFU=   117
 Initial guess from the checkpoint file:  "water-3-molecules.chk"
 B after Tr=     0.000000    0.000000    0.000000
         Rot=    0.999742   -0.005124    0.002819    0.021940 Ang=  -2.60 deg.
 ExpMin= 8.45D-02 ExpMax= 8.59D+03 ExpMxC= 1.30D+03 IAcc=3 IRadAn=         5 AccDes= 0.00D+00
 Harris functional with IExCor=  402 and IRadAn=       5 diagonalized for initial guess.
 HarFok:  IExCor=  402 AccDes= 0.00D+00 IRadAn=         5 IDoV= 1 UseB2=F ITyADJ=14
 ICtDFT=  3500011 ScaDFX=  1.000000  1.000000  1.000000  1.000000
 FoFCou: FMM=F IPFlag=           0 FMFlag=      100000 FMFlg1=           0
         NFxFlg=           0 DoJE=T BraDBF=F KetDBF=T FulRan=T
         wScrn=  0.000000 ICntrl=       500 IOpCl=  0 I1Cent=   200000004 NGrid=           0
         NMat0=    1 NMatS0=      1 NMatT0=    0 NMatD0=    1 NMtDS0=    0 NMtDT0=    0
 Petite list used in FoFCou.
 Keep R1 ints in memory in canonical form, NReq=27620021.
 Requested convergence on RMS density matrix=1.00D-08 within  32 cycles.
 Requested convergence on MAX density matrix=1.00D-06.
 Requested convergence on             energy=1.00D-06.
 No special actions if energy rises.
 Integral accuracy reduced to 1.0D-05 until final iterations.
 Initial convergence to 1.0D-05 achieved.  Increase integral accuracy.
 SCF Done:  E(RB3LYP) =  -229.402323278     A.U. after   11 cycles
            NFock= 11  Conv=0.87D-08     -V/T= 2.0033
 QCSCF skips out because SCF is already converged.
 Calling FoFJK, ICntrl=      2127 FMM=F ISym2X=0 I1Cent= 0 IOpClX= 0 NMat=1 NMatS=1 NMatT=0.
 ***** Axes restored to original set *****
 -------------------------------------------------------------------
 Center     Atomic                   Forces (Hartrees/Bohr)
 Number     Number              X              Y              Z
 -------------------------------------------------------------------
      1        8          -0.005420210    0.002454885   -0.000511606
      2        1           0.005808782   -0.000231039    0.001031723
      3        1           0.000619243   -0.000716930   -0.000392359
      4        8          -0.002802242   -0.004081135    0.000709333
      5        1          -0.001369268   -0.000091435    0.002284952
      6        1           0.002583090    0.003464753   -0.002270560
      7        8           0.000245889   -0.000504348   -0.000238845
      8        1          -0.001312467   -0.000221240   -0.002868978
      9        1           0.001647183   -0.000073512    0.002256341
 -------------------------------------------------------------------
 Cartesian Forces:  Max     0.005808782 RMS     0.002323074

 GradGradGradGradGradGradGradGradGradGradGradGradGradGradGradGradGradGrad
 Berny optimization.
 Using GEDIIS/GDIIS optimizer.
 FormGI is forming the generalized inverse of G from B-inverse, IUseBI=4.
 Internal  Forces:  Max     0.007449271 RMS     0.002772279
 Search for a local minimum.
 Step number   6 out of a maximum of   35
 All quantities printed in internal units (Hartrees-Bohrs-Radians)
 Mixed Optimization -- RFO/linear search
 Update second derivatives using D2CorX and points    5    6
 DE= -3.16D-03 DEPred=-3.42D-03 R= 9.23D-01
 TightC=F SS=  1.41D+00  RLast= 4.24D-01 DXNew= 4.2426D-01 1.2734D+00
 Trust test= 9.23D-01 RLast= 4.24D-01 DXMaxT set to 4.24D-01
 ITU=  1  0 -1  1  0  0
 Use linear search instead of GDIIS.
     Eigenvalues ---    0.00220   0.00380   0.01012   0.01393   0.03036
     Eigenvalues ---    0.06958   0.07174   0.08088   0.09335   0.11275
     Eigenvalues ---    0.12477   0.14049   0.16167   0.18194   0.24695
     Eigenvalues ---    0.48970   0.52487   0.53730   0.54923   0.58447
     Eigenvalues ---    1.02529
 RFO step:  Lambda=-1.68515665D-03 EMin= 2.20064467D-03
 Quartic linear search produced a step of  0.05019.
 Iteration  1 RMS(Cart)=  0.15967799 RMS(Int)=  0.00619075
 Iteration  2 RMS(Cart)=  0.00939558 RMS(Int)=  0.00033938
 Iteration  3 RMS(Cart)=  0.00004965 RMS(Int)=  0.00033777
 Iteration  4 RMS(Cart)=  0.00000001 RMS(Int)=  0.00033777
 Variable       Old X    -DE/DX   Delta X   Delta X   Delta X     New X
                                 (Linear)    (Quad)   (Total)
    R1        1.85896  -0.00504   0.00041  -0.00866  -0.00825   1.85071
    R2        1.81492   0.00092  -0.00139  -0.00477  -0.00616   1.80877
    R3        3.53406   0.00000   0.00448   0.04185   0.04633   3.58039
    R4        1.84929  -0.00093  -0.00024  -0.00430  -0.00454   1.84475
    R5        1.82515  -0.00372  -0.00085  -0.00966  -0.01051   1.81464
    R6        3.52394   0.00003   0.00288   0.03414   0.03702   3.56096
    R7        1.83720  -0.00148   0.00089   0.00263   0.00352   1.84071
    R8        1.82504  -0.00184   0.00069   0.00069   0.00138   1.82642
    A1        1.86734   0.00061  -0.00022  -0.00005  -0.00027   1.86707
    A2        2.65534  -0.00288  -0.00123  -0.00452  -0.00574   2.64959
    A3        1.56362  -0.00745  -0.00640  -0.11718  -0.12386   1.43976
    A4        1.96639   0.00222   0.00148   0.01560   0.01615   1.98254
    A5        1.88593  -0.00197   0.00448  -0.00338   0.00107   1.88701
    A6        2.70061  -0.00563  -0.00350  -0.03406  -0.03756   2.66305
    A7        1.67666  -0.00297  -0.00199  -0.03958  -0.04147   1.63519
    A8        1.77056   0.00210   0.00127   0.03213   0.03345   1.80401
    A9        1.83680  -0.00212   0.00102   0.00301   0.00439   1.84118
    D1       -2.97007   0.00053  -0.00300   0.00789   0.00490  -2.96517
    D2        0.07311  -0.00233   0.00035  -0.08111  -0.08072  -0.00762
    D3       -1.83707   0.00279  -0.00202  -0.02800  -0.03005  -1.86711
    D4        0.36487   0.00108  -0.00952   0.05004   0.03964   0.40451
    D5        2.35044   0.00053  -0.00924   0.02475   0.01640   2.36684
    D6       -0.59512   0.00271  -0.00900   0.03817   0.02951  -0.56560
    D7        1.27119   0.00015  -0.00817   0.03718   0.02867   1.29986
    D8        1.80882   0.00093   0.00094   0.02219   0.02312   1.83194
         Item               Value     Threshold  Converged?
 Maximum Force            0.007449     0.000450     NO 
 RMS     Force            0.002772     0.000300     NO 
 Maximum Displacement     0.449623     0.001800     NO 
 RMS     Displacement     0.166809     0.001200     NO 
 Predicted change in Energy=-8.881357D-04
 GradGradGradGradGradGradGradGradGradGradGradGradGradGradGradGradGradGrad

                          Input orientation:                          
 ---------------------------------------------------------------------
 Center     Atomic      Atomic             Coordinates (Angstroms)
 Number     Number       Type             X           Y           Z
 ---------------------------------------------------------------------
      1          8           0        0.998094   -1.183220    0.259737
      2          1           0        0.038220   -1.149001    0.068405
      3          1           0        1.288534   -2.076007    0.073377
      4          8           0       -1.583379   -0.199666   -0.174327
      5          1           0       -1.013177    0.568966    0.018124
      6          1           0       -2.201529   -0.302526    0.553283
      7          8           0        0.659858    1.432426    0.097298
      8          1           0        1.143854    0.612556    0.303114
      9          1           0        0.857015    1.622857   -0.829518
 ---------------------------------------------------------------------
                    Distance matrix (angstroms):
                    1          2          3          4          5
     1  O    0.000000
     2  H    0.979356   0.000000
     3  H    0.957159   1.556486   0.000000
     4  O    2.796389   1.894660   3.439461   0.000000
     5  H    2.678385   2.014789   3.506680   0.976199   0.000000
     6  H    3.331574   2.442970   3.944120   0.960264   1.567825
     7  O    2.642422   2.655379   3.564394   2.787404   1.884377
     8  H    1.802204   2.092988   2.702236   2.885387   2.176213
     9  H    3.013378   3.026531   3.831843   3.115508   2.307986
                    6          7          8          9
     6  H    0.000000
     7  O    3.377206   0.000000
     8  H    3.477291   0.974064   0.000000
     9  H    3.869616   0.966500   1.544617   0.000000
 Stoichiometry    H6O3
 Framework group  C1[X(H6O3)]
 Deg. of freedom    21
 Full point group                 C1      NOp   1
 Largest Abelian subgroup         C1      NOp   1
 Largest concise Abelian subgroup C1      NOp   1
                         Standard orientation:                         
 ---------------------------------------------------------------------
 Center     Atomic      Atomic             Coordinates (Angstroms)
 Number     Number       Type             X           Y           Z
 ---------------------------------------------------------------------
      1          8           0        1.016063   -1.154103    0.038588
      2          1           0        0.043000   -1.135271   -0.070648
      3          1           0        1.311268   -2.022408   -0.235371
      4          8           0       -1.615574   -0.220231   -0.110284
      5          1           0       -1.049911    0.549663    0.090347
      6          1           0       -2.168019   -0.392649    0.655996
      7          8           0        0.602639    1.455165    0.095140
      8          1           0        1.121729    0.637701    0.200488
      9          1           0        0.716914    1.716324   -0.828364
 ---------------------------------------------------------------------
 Rotational constants (GHZ):           7.5766369           6.7335988           3.6431695
 Standard basis: 6-311+G(2d,p) (5D, 7F)
 There are   123 symmetry adapted cartesian basis functions of A   symmetry.
 There are   117 symmetry adapted basis functions of A   symmetry.
   117 basis functions,   174 primitive gaussians,   123 cartesian basis functions
    15 alpha electrons       15 beta electrons
       nuclear repulsion energy        85.7810268341 Hartrees.
 NAtoms=    9 NActive=    9 NUniq=    9 SFac= 1.00D+00 NAtFMM=   60 NAOKFM=F Big=F
 Integral buffers will be    131072 words long.
 Raffenetti 2 integral format.
 Two-electron integral symmetry is turned on.
 One-electron integrals computed using PRISM.
 NBasis=   117 RedAO= T EigKep=  9.05D-04  NBF=   117
 NBsUse=   117 1.00D-06 EigRej= -1.00D+00 NBFU=   117
 Initial guess from the checkpoint file:  "water-3-molecules.chk"
 B after Tr=     0.000000    0.000000    0.000000
         Rot=    0.760561   -0.002052   -0.001572    0.649262 Ang= -80.97 deg.
 ExpMin= 8.45D-02 ExpMax= 8.59D+03 ExpMxC= 1.30D+03 IAcc=3 IRadAn=         5 AccDes= 0.00D+00
 Harris functional with IExCor=  402 and IRadAn=       5 diagonalized for initial guess.
 HarFok:  IExCor=  402 AccDes= 0.00D+00 IRadAn=         5 IDoV= 1 UseB2=F ITyADJ=14
 ICtDFT=  3500011 ScaDFX=  1.000000  1.000000  1.000000  1.000000
[...]
 Total                   50.401             23.794             79.036
 Electronic               0.000              0.000              0.000
 Translational            0.889              2.981             37.883
 Rotational               0.889              2.981             25.092
 Vibrational             48.623             17.832             16.061
 Vibration     1          0.630              1.865              2.311
 Vibration     2          0.632              1.857              2.252
 Vibration     3          0.640              1.832              2.083
 Vibration     4          0.646              1.815              1.985
 Vibration     5          0.649              1.806              1.935
 Vibration     6          0.671              1.739              1.634
 Vibration     7          0.735              1.553              1.120
 Vibration     8          0.747              1.520              1.054
 Vibration     9          0.819              1.336              0.762
 Vibration    10          0.953              1.042              0.458
                       Q            Log10(Q)             Ln(Q)
 Total Bot       0.784274D-20        -20.105532        -46.294698
 Total V=0       0.284629D+14         13.454279         30.979621
 Vib (Bot)       0.739175D-32        -32.131253        -73.984943
 Vib (Bot)    1  0.110474D+01          0.043261          0.099611
 Vib (Bot)    2  0.106804D+01          0.028587          0.065824
 Vib (Bot)    3  0.968101D+00         -0.014079         -0.032419
 Vib (Bot)    4  0.913043D+00         -0.039509         -0.090972
 Vib (Bot)    5  0.886086D+00         -0.052524         -0.120942
 Vib (Bot)    6  0.733786D+00         -0.134431         -0.309538
 Vib (Bot)    7  0.508115D+00         -0.294038         -0.677048
 Vib (Bot)    8  0.481525D+00         -0.317382         -0.730798
 Vib (Bot)    9  0.368340D+00         -0.433751         -0.998748
 Vib (Bot)   10  0.252258D+00         -0.598155         -1.377302
 Vib (V=0)       0.268261D+02          1.428558          3.289376
 Vib (V=0)    1  0.171262D+01          0.233662          0.538026
 Vib (V=0)    2  0.167928D+01          0.225124          0.518367
 Vib (V=0)    3  0.158960D+01          0.201287          0.463480
 Vib (V=0)    4  0.154098D+01          0.187798          0.432421
 Vib (V=0)    5  0.151742D+01          0.181106          0.417013
 Vib (V=0)    6  0.138794D+01          0.142371          0.327822
 Vib (V=0)    7  0.121287D+01          0.083814          0.192988
 Vib (V=0)    8  0.119417D+01          0.077065          0.177448
 Vib (V=0)    9  0.112103D+01          0.049616          0.114245
 Vib (V=0)   10  0.106003D+01          0.025318          0.058298
 Electronic      0.100000D+01          0.000000          0.000000
 Translational   0.156109D+08          7.193427         16.563477
 Rotational      0.679663D+05          4.832294         11.126768
 ***** Axes restored to original set *****
 -------------------------------------------------------------------
 Center     Atomic                   Forces (Hartrees/Bohr)
 Number     Number              X              Y              Z
 -------------------------------------------------------------------
      1        8          -0.000017002    0.000029054    0.000014995
      2        1          -0.000001193   -0.000004659   -0.000005045
      3        1           0.000011580   -0.000019812   -0.000011739
      4        8           0.000006139    0.000012205   -0.000016259
      5        1           0.000018978   -0.000023639   -0.000000808
      6        1          -0.000008460    0.000004880    0.000019039
      7        8          -0.000003836   -0.000001326   -0.000007829
      8        1          -0.000005239    0.000008177   -0.000002120
      9        1          -0.000000967   -0.000004880    0.000009768
 -------------------------------------------------------------------
 Cartesian Forces:  Max     0.000029054 RMS     0.000012467
 FormGI is forming the generalized inverse of G from B-inverse, IUseBI=4.

 GradGradGradGradGradGradGradGradGradGradGradGradGradGradGradGradGradGrad
 Berny optimization.
 Internal  Forces:  Max     0.000025906 RMS     0.000010425
 Search for a local minimum.
 Step number   1 out of a maximum of    2
 All quantities printed in internal units (Hartrees-Bohrs-Radians)
 Second derivative matrix not updated -- analytic derivatives used.
 ITU=  0
     Eigenvalues ---    0.00072   0.00106   0.00361   0.00570   0.00812
     Eigenvalues ---    0.00960   0.01008   0.02232   0.02460   0.04845
     Eigenvalues ---    0.08104   0.09053   0.12096   0.14455   0.39491
     Eigenvalues ---    0.47418   0.49124   0.53820   0.54037   0.54183
     Eigenvalues ---    0.56968
 Angle between quadratic step and forces=  74.00 degrees.
 Linear search not attempted -- first point.
 Iteration  1 RMS(Cart)=  0.00124144 RMS(Int)=  0.00000366
 Iteration  2 RMS(Cart)=  0.00000245 RMS(Int)=  0.00000042
 Iteration  3 RMS(Cart)=  0.00000000 RMS(Int)=  0.00000042
 Variable       Old X    -DE/DX   Delta X   Delta X   Delta X     New X
                                 (Linear)    (Quad)   (Total)
    R1        1.84765  -0.00001   0.00000   0.00001   0.00001   1.84766
    R2        1.81818   0.00003   0.00000   0.00004   0.00004   1.81822
    R3        3.58713  -0.00001   0.00000   0.00009   0.00009   3.58722
    R4        1.84753  -0.00001   0.00000   0.00002   0.00002   1.84755
    R5        1.81898   0.00002   0.00000   0.00005   0.00005   1.81903
    R6        3.58776  -0.00001   0.00000  -0.00139  -0.00139   3.58637
    R7        1.84608  -0.00001   0.00000  -0.00002  -0.00002   1.84606
    R8        1.81845  -0.00001   0.00000  -0.00002  -0.00002   1.81843
    A1        1.85744   0.00001   0.00000   0.00013   0.00013   1.85757
    A2        2.63339  -0.00002   0.00000  -0.00060  -0.00060   2.63280
    A3        1.56102  -0.00002   0.00000  -0.00093  -0.00093   1.56009
    A4        2.13883   0.00000   0.00000  -0.00180  -0.00180   2.13703
    A5        1.85375   0.00000   0.00000  -0.00021  -0.00021   1.85354
    A6        2.63102   0.00002   0.00000   0.00157   0.00157   2.63259
    A7        1.57967   0.00000   0.00000  -0.00009  -0.00009   1.57958
    A8        2.18448   0.00000   0.00000   0.00073   0.00073   2.18521
    A9        1.85799   0.00000   0.00000   0.00005   0.00005   1.85804
    D1       -2.29889   0.00000   0.00000  -0.00360  -0.00360  -2.30249
    D2       -0.02279   0.00000   0.00000   0.00329   0.00329  -0.01950
    D3       -1.92457   0.00001   0.00000   0.00454   0.00453  -1.92004
    D4        0.01600   0.00000   0.00000  -0.00287  -0.00287   0.01313
    D5        2.17809  -0.00001   0.00000  -0.00514  -0.00514   2.17296
    D6        0.05151   0.00000   0.00000   0.00256   0.00256   0.05407
    D7        1.98281   0.00000   0.00000   0.00276   0.00276   1.98557
    D8        2.21821   0.00000   0.00000   0.00076   0.00076   2.21896
         Item               Value     Threshold  Converged?
 Maximum Force            0.000026     0.000450     YES
 RMS     Force            0.000010     0.000300     YES
 Maximum Displacement     0.002691     0.001800     NO 
 RMS     Displacement     0.001242     0.001200     NO 
 Predicted change in Energy=-7.296599D-08
                           ----------------------------
                           ! Non-Optimized Parameters !
                           ! (Angstroms and Degrees)  !
 --------------------------                            --------------------------
 ! Name  Definition              Value          Derivative Info.                !
 --------------------------------------------------------------------------------
 ! R1    R(1,2)                  0.9777         -DE/DX =    0.0                 !
 ! R2    R(1,3)                  0.9622         -DE/DX =    0.0                 !
 ! R3    R(2,4)                  1.8983         -DE/DX =    0.0                 !
 ! R4    R(4,5)                  0.9777         -DE/DX =    0.0                 !
 ! R5    R(4,6)                  0.9626         -DE/DX =    0.0                 !
 ! R6    R(5,7)                  1.8978         -DE/DX =    0.0                 !
 ! R7    R(7,8)                  0.9769         -DE/DX =    0.0                 !
 ! R8    R(7,9)                  0.9623         -DE/DX =    0.0                 !
 ! A1    A(2,1,3)              106.4309         -DE/DX =    0.0                 !
 ! A2    A(1,2,4)              150.8482         -DE/DX =    0.0                 !
 ! A3    A(2,4,5)               89.3867         -DE/DX =    0.0                 !
 ! A4    A(2,4,6)              122.4427         -DE/DX =    0.0                 !
 ! A5    A(5,4,6)              106.2001         -DE/DX =    0.0                 !
 ! A6    A(4,5,7)              150.8362         -DE/DX =    0.0                 !
 ! A7    A(5,7,8)               90.503          -DE/DX =    0.0                 !
 ! A8    A(5,7,9)              125.2035         -DE/DX =    0.0                 !
 ! A9    A(8,7,9)              106.4576         -DE/DX =    0.0                 !
 ! D1    D(3,1,2,4)           -131.9231         -DE/DX =    0.0                 !
 ! D2    D(1,2,4,5)             -1.1171         -DE/DX =    0.0                 !
 ! D3    D(1,2,4,6)           -110.0102         -DE/DX =    0.0                 !
 ! D4    D(2,4,5,7)              0.752          -DE/DX =    0.0                 !
 ! D5    D(6,4,5,7)            124.5013         -DE/DX =    0.0                 !
 ! D6    D(4,5,7,8)              3.0982         -DE/DX =    0.0                 !
 ! D7    D(4,5,7,9)            113.7646         -DE/DX =    0.0                 !
 ! D8    D(5,7,8,9)            127.1373         -DE/DX =    0.0                 !
 --------------------------------------------------------------------------------
 GradGradGradGradGradGradGradGradGradGradGradGradGradGradGradGradGradGrad


 ----------------------------------------------------------------------

 Electric dipole moment (input orientation):
 (Debye = 10**-18 statcoulomb cm , SI units = C m)
                  (au)            (Debye)         (10**-30 SI)
   Tot        0.456641D+00      0.116066D+01      0.387156D+01
   x          0.695658D-01      0.176818D+00      0.589803D+00
   y         -0.613346D-01     -0.155897D+00     -0.520017D+00
   z         -0.447123D+00     -0.113647D+01     -0.379087D+01

 Dipole polarizability, Alpha (input orientation).
 (esu units = cm**3 , SI units = C**2 m**2 J**-1)
 Alpha(0;0):
               (au)            (10**-24 esu)      (10**-40 SI)
   iso        0.260177D+02      0.385543D+01      0.428974D+01
   aniso      0.567493D+01      0.840939D+00      0.935670D+00
   xx         0.278739D+02      0.413049D+01      0.459579D+01
   yx        -0.410611D-01     -0.608462D-02     -0.677005D-02
   yy         0.276328D+02      0.409476D+01      0.455604D+01
   zx        -0.584605D+00     -0.866295D-01     -0.963883D-01
   zy        -0.115747D+01     -0.171520D+00     -0.190842D+00
   zz         0.225465D+02      0.334104D+01      0.371741D+01

 ----------------------------------------------------------------------

 Dipole orientation:
     8          1.94670869          2.53882880         -0.18328639
     1          0.10054820          2.46555946         -0.19534497
     1          2.40527880          3.73502828          1.10690828
     8         -2.96164750          0.59728841         -0.19350612
     1         -1.98406843         -0.97034610         -0.20913253
     1         -4.06355249          0.52306561         -1.63883590
     8          1.15983936         -2.69889919         -0.20831473
     1          2.06142205         -1.09301909         -0.08061728
     1          1.77883009         -3.74603960          1.14339751

 Electric dipole moment (dipole orientation):
 (Debye = 10**-18 statcoulomb cm , SI units = C m)
                  (au)            (Debye)         (10**-30 SI)
   Tot        0.456641D+00      0.116066D+01      0.387156D+01
   x          0.000000D+00      0.000000D+00      0.000000D+00
   y          0.000000D+00      0.000000D+00      0.000000D+00
   z          0.456641D+00      0.116066D+01      0.387156D+01

 Dipole polarizability, Alpha (dipole orientation).
 (esu units = cm**3 , SI units = C**2 m**2 J**-1)
 Alpha(0;0):
               (au)            (10**-24 esu)      (10**-40 SI)
   iso        0.260177D+02      0.385543D+01      0.428974D+01
   aniso      0.567493D+01      0.840939D+00      0.935670D+00
   xx         0.275697D+02      0.408541D+01      0.454563D+01
   yx         0.301099D-01      0.446183D-02      0.496446D-02
   yy         0.278500D+02      0.412694D+01      0.459184D+01
   zx         0.138794D+01      0.205672D+00      0.228841D+00
   zy        -0.445313D+00     -0.659885D-01     -0.734222D-01
   zz         0.226335D+02      0.335394D+01      0.373176D+01

 ----------------------------------------------------------------------
 1\1\GINC-HRG02\Freq\RB3LYP\6-311+G(2d,p)\H6O3\HASHMI\01-Jul-2023\0\\#N
  Geom=AllCheck Guess=TCheck SCRF=Check GenChk RB3LYP/6-311+G(2d,p) Fre
 q\\Title Card Required\\0,1\O,0.9894080106,-1.3075655851,0.4323593373\
 H,0.0233466638,-1.2783899383,0.2845693267\H,1.3266933198,-2.0239919234
 ,-0.1141616313\O,-1.5677259948,-0.3156397176,-0.0960379679\H,-1.049162
 6913,0.5128139923,-0.1205561083\H,-2.2601021945,-0.1800188663,0.558750
 1311\O,0.6045357654,1.4363292517,0.0096085878\H,1.0775467758,0.5901366
 394,0.130266492\H,1.0429493451,1.8927111474,-0.7153061675\\Version=EM6
 4L-G16RevB.01\State=1-A\HF=-229.4048393\RMSD=6.134e-10\RMSF=1.247e-05\
 ZeroPoint=0.0729612\Thermal=0.080319\Dipole=0.0695658,-0.0613346,-0.44
 71235\DipoleDeriv=-0.7645847,0.1232795,0.0156458,0.0850729,-0.7435536,
 0.1648987,-0.0093886,0.1689342,-0.5381691,0.6157407,-0.1801635,0.01760
 25,-0.1767844,0.3616948,-0.0656432,0.0166579,-0.0636303,0.2674613,0.30
 20136,-0.0242743,-0.0099445,0.0111543,0.2339568,-0.0787218,0.0119355,-
 0.0861595,0.2657567,-0.8747401,-0.0337869,-0.0966786,-0.0686534,-0.651
 2905,0.1174664,-0.1084293,0.094749,-0.5267579,0.5828479,0.1897868,0.01
 07696,0.1943126,0.3932226,-0.0519213,0.0079421,-0.0530788,0.2680711,0.
 2819775,0.0207606,0.0560535,0.0506599,0.2719279,-0.0564438,0.0701831,-
 0.0345551,0.255985,-0.6636096,-0.0725712,-0.1207824,-0.1062501,-0.8547
 656,0.0201519,-0.1115132,-0.0071139,-0.5116697,0.2754445,-0.0025054,0.
 0442559,0.003554,0.6690278,-0.0666446,0.0562167,-0.0546097,0.2744657,0
 .2449102,-0.0205257,0.0830781,0.0069343,0.3197798,0.0168576,0.0663958,
 0.0354642,0.2448569\Polar=27.8739081,-0.0410611,27.6328146,-0.5846047,
 -1.1574748,22.5464719\Quadrupole=1.2535714,0.6399109,-1.8934822,-0.559
 7475,-4.6655575,-0.797038\PG=C01 [X(H6O3)]\NImag=0\\0.56435296,-0.1402
 3502,0.34384798,-0.01941732,0.24006824,0.21241756,-0.44520344,0.025603
 76,-0.05351265,0.45433305,-0.01421407,-0.03685131,-0.02155492,-0.01415
 752,0.04641022,-0.08859429,-0.01603632,-0.03812404,0.05723332,0.017585
 02,0.04058070,-0.10123566,0.10424140,0.07439920,-0.01168996,0.03609807
 ,0.02927261,0.11427025,0.14449437,-0.29656024,-0.22045008,-0.00383239,
 -0.00259098,-0.00256857,-0.14128737,0.29935149,0.10892822,-0.22889375,
 -0.17473223,-0.00535055,0.00396166,0.00222450,-0.10178831,0.22438929,0
 .17269841,-0.01272863,0.00861843,-0.00115382,0.00172684,-0.00746354,-0
 .00008703,-0.00189330,-0.00056894,-0.00095954,0.44078591,0.00820954,0.
 00099833,-0.00086591,-0.00584801,-0.00248143,0.00287975,0.00045536,0.0
 0030512,0.00056974,0.15103950,0.40646171,-0.00055238,0.00071654,0.0051
 6895,0.00098892,-0.00024800,-0.00859391,-0.00106675,-0.00001025,-0.000
 39441,-0.27087938,0.06145625,0.27532646,-0.00250918,-0.00323812,0.0006
 6414,0.00530916,0.00392916,-0.00074082,0.00000449,-0.00003310,0.000088
 55,-0.14457398,-0.16767942,0.02812494,0.15909933,-0.00273209,0.0003050
 8,0.00015173,0.00370343,-0.00605769,0.00086180,-0.00025909,-0.00014446
 ,-0.00021168,-0.20492895,-0.34668663,0.00979915,0.18790617,0.34614982,
 0.00075004,-0.00033662,-0.00126982,-0.00129733,0.00229432,0.00160584,0
 .00023345,-0.00023449,0.00023070,0.01002354,-0.02410968,-0.02968468,-0
 .02700342,-0.00636997,0.03730436,-0.00020974,0.00029439,-0.00085152,-0
 .00109824,-0.00034569,0.00232150,-0.00007322,0.00009583,-0.00014374,-0
 .27450948,0.02462897,0.24176869,-0.01659726,0.00925848,0.01886863,0.29
 277805,0.00162044,-0.00072669,0.00123100,-0.00126489,0.00136549,-0.002
 88735,0.00003225,0.00018296,-0.00005441,0.06260321,-0.05270897,-0.0728
 3945,-0.02834211,0.00695050,0.02838394,-0.03329671,0.04645482,-0.00213
 586,0.00075987,-0.00077394,0.00195564,-0.00145600,0.00149743,-0.000156
 99,0.00008743,-0.00004846,0.26244961,-0.04108094,-0.24500089,0.0002300
 6,-0.00463563,-0.00259790,-0.26166283,0.04683700,0.24685571,0.00487241
 ,0.00163490,-0.00012431,-0.00304740,0.00286777,-0.00058096,0.00021556,
 -0.00037340,-0.00031081,-0.00927117,-0.00952653,0.00264170,0.00355085,
 0.00342728,-0.00401868,-0.00034729,-0.00148723,-0.00077344,0.27921286,
 0.00228721,-0.01524202,0.00142261,0.00226766,0.00091448,-0.00082676,-0
 .00179744,-0.00084887,0.00197505,-0.01024790,-0.00206388,0.00038574,0.
 00586223,-0.00497977,0.00053320,-0.00047116,-0.00143667,-0.00038591,-0
 .09292304,0.50961489,-0.00115562,0.00251628,0.00440257,-0.00038894,0.0
 0004933,-0.00114500,0.00067728,0.00146271,-0.00070967,0.00202131,0.001
 92382,0.00493635,-0.00143747,-0.00024544,-0.00817562,-0.00054723,-0.00
 065648,-0.00017928,-0.17497787,-0.23674132,0.33696175,-0.00683684,0.00
 182642,0.00001607,-0.00008454,-0.00665460,0.00095612,0.00004591,0.0012
 3649,-0.00046235,0.00217447,0.00002165,0.00010941,-0.00632365,0.003138
 47,-0.00092848,-0.00001336,0.00023549,0.00013854,-0.14128724,0.2039430
 3,-0.01778824,0.14313423,-0.00043779,0.00514863,0.00130466,-0.00639716
 ,-0.00088431,0.00075861,0.00270192,0.00106981,-0.00217301,0.00078999,-
 0.00411801,0.00098202,0.00235793,0.00545858,-0.00092781,0.00003606,-0.
 00007437,-0.00002428,0.17037780,-0.34591356,0.06589891,-0.18130715,0.3
 5468523,0.00235743,0.00195134,-0.00712399,0.00024661,-0.00075282,0.001
 91741,-0.00164727,-0.00257161,0.00060410,0.00033980,0.00076862,-0.0015
 3130,-0.00233428,-0.00058430,0.00187800,0.00039147,0.00008610,0.000248
 94,0.00703555,0.03364838,-0.03749555,0.01128406,-0.06480494,0.04757014
 ,-0.00050188,0.00125383,-0.00001979,-0.00024547,-0.00005959,0.00021955
 ,0.00035593,0.00026850,-0.00000148,-0.00171065,-0.00130105,-0.00113514
 ,0.00204024,0.00048631,0.00337226,0.00007055,-0.00010045,-0.00004471,-
 0.13389858,-0.10892059,0.19359678,0.00919102,0.01187840,-0.01767338,0.
 12469886,0.00100741,-0.00091976,-0.00130732,-0.00007489,0.00017554,0.0
 0023382,-0.00018511,-0.00076482,0.00043711,0.00015820,0.00029376,-0.00
 024200,-0.00076273,-0.00099543,0.00076711,-0.00020017,-0.00000708,-0.0
 0010155,-0.07399753,-0.14004460,0.16579217,-0.02243981,-0.01537199,0.0
 3225925,0.09649463,0.15763439,-0.00018022,-0.00074557,0.00003493,0.000
 12497,0.00012141,0.00003708,0.00007678,-0.00010443,0.00012706,-0.00175
 448,-0.00154164,-0.00022656,0.00240830,0.00123434,0.00070912,-0.000144
 96,-0.00010036,-0.00000162,0.17110882,0.19998901,-0.29859555,0.0066748
 7,-0.00101416,-0.00606775,-0.17831408,-0.19783859,0.30398328\\0.000017
 00,-0.00002905,-0.00001499,0.00000119,0.00000466,0.00000504,-0.0000115
 8,0.00001981,0.00001174,-0.00000614,-0.00001220,0.00001626,-0.00001898
 ,0.00002364,0.00000081,0.00000846,-0.00000488,-0.00001904,0.00000384,0
 .00000133,0.00000783,0.00000524,-0.00000818,0.00000212,0.00000097,0.00
 000488,-0.00000977\\\@


 MY DESCRIPTION OF EXPERIENCE IS NOT WHAT HAPPENS
 TO A MAN.  EXPERIENCE IS WHAT A MAN DOES WITH WHAT
 HAPPENS TO HIM.
                         - CHUCK KNOX, SEATTLE SEAHAWKS, 1985
 Job cpu time:       0 days  0 hours  5 minutes 22.7 seconds.
 Elapsed time:       0 days  0 hours  1 minutes 20.9 seconds.
 File lengths (MBytes):  RWF=     16 Int=      0 D2E=      0 Chk=      3 Scr=      1
 Normal termination of Gaussian 16 at Sat Jul  1 11:08:31 2023.
