 Title Card Required
GAUSSIAN             21 MOL ORBITALS    292 PRIMITIVES       11 NUCLEI
  C    1    (CENTRE  1)  -2.15572441 -1.35993769 -0.00040926  CHARGE =  6.0
  C    2    (CENTRE  2)  -2.25690144  1.26696457 -0.00023201  CHARGE =  6.0
  C    3    (CENTRE  3)   0.00028406  2.60742169  0.00018389  CHARGE =  6.0
  C    4    (CENTRE  4)   2.25717719  1.26650017  0.00040107  CHARGE =  6.0
  C    5    (CENTRE  5)   2.15543095 -1.36037803  0.00023123  CHARGE =  6.0
  N    6    (CENTRE  6)  -0.00028877 -2.67190136 -0.00017311  CHARGE =  7.0
  H    7    (CENTRE  7)   0.00044550  4.65535285  0.00032944  CHARGE =  1.0
  H    8    (CENTRE  8)  -3.88476138 -2.46486969 -0.00070410  CHARGE =  1.0
  H    9    (CENTRE  9)  -4.06367766  2.22800502 -0.00046352  CHARGE =  1.0
  H   10    (CENTRE 10)   4.06419650  2.22708643  0.00065309  CHARGE =  1.0
  H   11    (CENTRE 11)   3.88422031 -2.46568931  0.00034736  CHARGE =  1.0
CENTRE ASSIGNMENTS    1  1  1  1  1  1  1  1  1  1  1  1  1  1  1  1  1  1  1  1
CENTRE ASSIGNMENTS    1  1  1  1  1  1  1  1  1  1  1  1  1  1  1  1  1  1  1  1
CENTRE ASSIGNMENTS    1  1  2  2  2  2  2  2  2  2  2  2  2  2  2  2  2  2  2  2
CENTRE ASSIGNMENTS    2  2  2  2  2  2  2  2  2  2  2  2  2  2  2  2  2  2  2  2
CENTRE ASSIGNMENTS    2  2  2  2  3  3  3  3  3  3  3  3  3  3  3  3  3  3  3  3
CENTRE ASSIGNMENTS    3  3  3  3  3  3  3  3  3  3  3  3  3  3  3  3  3  3  3  3
CENTRE ASSIGNMENTS    3  3  3  3  3  3  4  4  4  4  4  4  4  4  4  4  4  4  4  4
CENTRE ASSIGNMENTS    4  4  4  4  4  4  4  4  4  4  4  4  4  4  4  4  4  4  4  4
CENTRE ASSIGNMENTS    4  4  4  4  4  4  4  4  5  5  5  5  5  5  5  5  5  5  5  5
CENTRE ASSIGNMENTS    5  5  5  5  5  5  5  5  5  5  5  5  5  5  5  5  5  5  5  5
CENTRE ASSIGNMENTS    5  5  5  5  5  5  5  5  5  5  6  6  6  6  6  6  6  6  6  6
CENTRE ASSIGNMENTS    6  6  6  6  6  6  6  6  6  6  6  6  6  6  6  6  6  6  6  6
CENTRE ASSIGNMENTS    6  6  6  6  6  6  6  6  6  6  6  6  7  7  7  7  7  7  7  7
CENTRE ASSIGNMENTS    8  8  8  8  8  8  8  8  9  9  9  9  9  9  9  9 10 10 10 10
CENTRE ASSIGNMENTS   10 10 10 10 11 11 11 11 11 11 11 11
TYPE ASSIGNMENTS      1  1  1  1  1  1  1  1  1  2  2  2  3  3  3  4  4  4  1  2
TYPE ASSIGNMENTS      3  4  1  2  3  4  1  2  3  4  5  6  7  8  9 10  5  6  7  8
TYPE ASSIGNMENTS      9 10  1  1  1  1  1  1  1  1  1  2  2  2  3  3  3  4  4  4
TYPE ASSIGNMENTS      1  2  3  4  1  2  3  4  1  2  3  4  5  6  7  8  9 10  5  6
TYPE ASSIGNMENTS      7  8  9 10  1  1  1  1  1  1  1  1  1  2  2  2  3  3  3  4
TYPE ASSIGNMENTS      4  4  1  2  3  4  1  2  3  4  1  2  3  4  5  6  7  8  9 10
TYPE ASSIGNMENTS      5  6  7  8  9 10  1  1  1  1  1  1  1  1  1  2  2  2  3  3
TYPE ASSIGNMENTS      3  4  4  4  1  2  3  4  1  2  3  4  1  2  3  4  5  6  7  8
TYPE ASSIGNMENTS      9 10  5  6  7  8  9 10  1  1  1  1  1  1  1  1  1  2  2  2
TYPE ASSIGNMENTS      3  3  3  4  4  4  1  2  3  4  1  2  3  4  1  2  3  4  5  6
TYPE ASSIGNMENTS      7  8  9 10  5  6  7  8  9 10  1  1  1  1  1  1  1  1  1  2
TYPE ASSIGNMENTS      2  2  3  3  3  4  4  4  1  2  3  4  1  2  3  4  1  2  3  4
TYPE ASSIGNMENTS      5  6  7  8  9 10  5  6  7  8  9 10  1  1  1  1  1  2  3  4
TYPE ASSIGNMENTS      1  1  1  1  1  2  3  4  1  1  1  1  1  2  3  4  1  1  1  1
TYPE ASSIGNMENTS      1  2  3  4  1  1  1  1  1  2  3  4
EXPONENTS  0.4563240D+04 0.6820240D+03 0.1549730D+03 0.4445530D+02 0.1302900D+02
EXPONENTS  0.1827730D+01 0.2096420D+02 0.4803310D+01 0.1459330D+01 0.2096420D+02
EXPONENTS  0.4803310D+01 0.1459330D+01 0.2096420D+02 0.4803310D+01 0.1459330D+01
EXPONENTS  0.2096420D+02 0.4803310D+01 0.1459330D+01 0.4834560D+00 0.4834560D+00
EXPONENTS  0.4834560D+00 0.4834560D+00 0.1455850D+00 0.1455850D+00 0.1455850D+00
EXPONENTS  0.1455850D+00 0.4380000D-01 0.4380000D-01 0.4380000D-01 0.4380000D-01
EXPONENTS  0.1252000D+01 0.1252000D+01 0.1252000D+01 0.1252000D+01 0.1252000D+01
EXPONENTS  0.1252000D+01 0.3130000D+00 0.3130000D+00 0.3130000D+00 0.3130000D+00
EXPONENTS  0.3130000D+00 0.3130000D+00 0.4563240D+04 0.6820240D+03 0.1549730D+03
EXPONENTS  0.4445530D+02 0.1302900D+02 0.1827730D+01 0.2096420D+02 0.4803310D+01
EXPONENTS  0.1459330D+01 0.2096420D+02 0.4803310D+01 0.1459330D+01 0.2096420D+02
EXPONENTS  0.4803310D+01 0.1459330D+01 0.2096420D+02 0.4803310D+01 0.1459330D+01
EXPONENTS  0.4834560D+00 0.4834560D+00 0.4834560D+00 0.4834560D+00 0.1455850D+00
EXPONENTS  0.1455850D+00 0.1455850D+00 0.1455850D+00 0.4380000D-01 0.4380000D-01
EXPONENTS  0.4380000D-01 0.4380000D-01 0.1252000D+01 0.1252000D+01 0.1252000D+01
EXPONENTS  0.1252000D+01 0.1252000D+01 0.1252000D+01 0.3130000D+00 0.3130000D+00
EXPONENTS  0.3130000D+00 0.3130000D+00 0.3130000D+00 0.3130000D+00 0.4563240D+04
EXPONENTS  0.6820240D+03 0.1549730D+03 0.4445530D+02 0.1302900D+02 0.1827730D+01
EXPONENTS  0.2096420D+02 0.4803310D+01 0.1459330D+01 0.2096420D+02 0.4803310D+01
EXPONENTS  0.1459330D+01 0.2096420D+02 0.4803310D+01 0.1459330D+01 0.2096420D+02
EXPONENTS  0.4803310D+01 0.1459330D+01 0.4834560D+00 0.4834560D+00 0.4834560D+00
EXPONENTS  0.4834560D+00 0.1455850D+00 0.1455850D+00 0.1455850D+00 0.1455850D+00
EXPONENTS  0.4380000D-01 0.4380000D-01 0.4380000D-01 0.4380000D-01 0.1252000D+01
EXPONENTS  0.1252000D+01 0.1252000D+01 0.1252000D+01 0.1252000D+01 0.1252000D+01
EXPONENTS  0.3130000D+00 0.3130000D+00 0.3130000D+00 0.3130000D+00 0.3130000D+00
EXPONENTS  0.3130000D+00 0.4563240D+04 0.6820240D+03 0.1549730D+03 0.4445530D+02
EXPONENTS  0.1302900D+02 0.1827730D+01 0.2096420D+02 0.4803310D+01 0.1459330D+01
EXPONENTS  0.2096420D+02 0.4803310D+01 0.1459330D+01 0.2096420D+02 0.4803310D+01
EXPONENTS  0.1459330D+01 0.2096420D+02 0.4803310D+01 0.1459330D+01 0.4834560D+00
EXPONENTS  0.4834560D+00 0.4834560D+00 0.4834560D+00 0.1455850D+00 0.1455850D+00
EXPONENTS  0.1455850D+00 0.1455850D+00 0.4380000D-01 0.4380000D-01 0.4380000D-01
EXPONENTS  0.4380000D-01 0.1252000D+01 0.1252000D+01 0.1252000D+01 0.1252000D+01
EXPONENTS  0.1252000D+01 0.1252000D+01 0.3130000D+00 0.3130000D+00 0.3130000D+00
EXPONENTS  0.3130000D+00 0.3130000D+00 0.3130000D+00 0.4563240D+04 0.6820240D+03
EXPONENTS  0.1549730D+03 0.4445530D+02 0.1302900D+02 0.1827730D+01 0.2096420D+02
EXPONENTS  0.4803310D+01 0.1459330D+01 0.2096420D+02 0.4803310D+01 0.1459330D+01
EXPONENTS  0.2096420D+02 0.4803310D+01 0.1459330D+01 0.2096420D+02 0.4803310D+01
EXPONENTS  0.1459330D+01 0.4834560D+00 0.4834560D+00 0.4834560D+00 0.4834560D+00
EXPONENTS  0.1455850D+00 0.1455850D+00 0.1455850D+00 0.1455850D+00 0.4380000D-01
EXPONENTS  0.4380000D-01 0.4380000D-01 0.4380000D-01 0.1252000D+01 0.1252000D+01
EXPONENTS  0.1252000D+01 0.1252000D+01 0.1252000D+01 0.1252000D+01 0.3130000D+00
EXPONENTS  0.3130000D+00 0.3130000D+00 0.3130000D+00 0.3130000D+00 0.3130000D+00
EXPONENTS  0.6293480D+04 0.9490440D+03 0.2187760D+03 0.6369160D+02 0.1882820D+02
EXPONENTS  0.2720230D+01 0.3063310D+02 0.7026140D+01 0.2112050D+01 0.3063310D+02
EXPONENTS  0.7026140D+01 0.2112050D+01 0.3063310D+02 0.7026140D+01 0.2112050D+01
EXPONENTS  0.3063310D+02 0.7026140D+01 0.2112050D+01 0.6840090D+00 0.6840090D+00
EXPONENTS  0.6840090D+00 0.6840090D+00 0.2008780D+00 0.2008780D+00 0.2008780D+00
EXPONENTS  0.2008780D+00 0.6390000D-01 0.6390000D-01 0.6390000D-01 0.6390000D-01
EXPONENTS  0.1826000D+01 0.1826000D+01 0.1826000D+01 0.1826000D+01 0.1826000D+01
EXPONENTS  0.1826000D+01 0.4565000D+00 0.4565000D+00 0.4565000D+00 0.4565000D+00
EXPONENTS  0.4565000D+00 0.4565000D+00 0.3386500D+02 0.5094790D+01 0.1158790D+01
EXPONENTS  0.3258400D+00 0.1027410D+00 0.7500000D+00 0.7500000D+00 0.7500000D+00
EXPONENTS  0.3386500D+02 0.5094790D+01 0.1158790D+01 0.3258400D+00 0.1027410D+00
EXPONENTS  0.7500000D+00 0.7500000D+00 0.7500000D+00 0.3386500D+02 0.5094790D+01
EXPONENTS  0.1158790D+01 0.3258400D+00 0.1027410D+00 0.7500000D+00 0.7500000D+00
EXPONENTS  0.7500000D+00 0.3386500D+02 0.5094790D+01 0.1158790D+01 0.3258400D+00
EXPONENTS  0.1027410D+00 0.7500000D+00 0.7500000D+00 0.7500000D+00 0.3386500D+02
EXPONENTS  0.5094790D+01 0.1158790D+01 0.3258400D+00 0.1027410D+00 0.7500000D+00
EXPONENTS  0.7500000D+00 0.7500000D+00
MO    1     MO 0.0        OCC NO =    2.0000000  ORB. ENERGY =  -14.314882
  0.14184528D-04  0.26405816D-04  0.43437320D-04  0.58329030D-04  0.54918981D-04
  0.45130582D-05 -0.18282829D-04 -0.48580901D-04  0.65490448D-07  0.65268765D-03
  0.61075483D-03  0.47305322D-03 -0.58620460D-03 -0.54854308D-03 -0.42486782D-03
  0.43428055D-07  0.40637960D-07  0.31475670D-07  0.17670642D-03 -0.76646460D-04
  0.23038689D-03  0.20990056D-07  0.34979855D-02  0.12846773D-02  0.55965179D-03
  0.23411015D-06  0.27731784D-03  0.65239513D-04  0.24021306D-04  0.10591620D-07
 -0.28214425D-03 -0.96932082D-05  0.29183745D-03  0.20594254D-03 -0.17239182D-06
 -0.18302073D-07  0.86744818D-04  0.11405355D-03 -0.20079837D-03  0.10917933D-02
  0.16012547D-06  0.20007275D-06  0.78010649D-06  0.14522407D-05  0.23889222D-05
  0.32079216D-05  0.30203791D-05  0.24820466D-06 -0.20077093D-05 -0.53348597D-05
  0.71917635D-08  0.35801989D-03  0.33501841D-03  0.25948471D-03 -0.30671025D-03
 -0.28700522D-03 -0.22229664D-03  0.19054010D-07  0.17829859D-07  0.13809915D-07
  0.26964967D-03 -0.46123408D-03  0.43721899D-03 -0.26299569D-07 -0.29726530D-02
 -0.14727439D-02  0.73093356D-03 -0.16534416D-06 -0.98491759D-03 -0.13618431D-03
  0.95362065D-05 -0.21000891D-07  0.13053466D-03 -0.19779854D-03  0.67263877D-04
 -0.27157712D-03 -0.25024070D-07 -0.74031435D-07 -0.36548976D-04 -0.63519104D-04
  0.10006808D-03  0.61845504D-03  0.21361881D-07  0.65710182D-07 -0.87708515D-05
 -0.16327754D-04 -0.26859002D-04 -0.36067132D-04 -0.33958564D-04 -0.27906013D-05
  0.53983865D-04  0.14344524D-03 -0.19337420D-06  0.21793461D-07  0.20393310D-07
  0.15795407D-07  0.25437848D-03  0.23803558D-03  0.18436776D-03  0.23844119D-07
  0.22312221D-07  0.17281678D-07 -0.48439489D-03 -0.20666376D-07 -0.27150066D-03
 -0.24143655D-07  0.30942192D-02 -0.77896800D-07 -0.12695312D-02 -0.86498140D-07
  0.15585685D-02  0.70309927D-09 -0.13686314D-03 -0.70106554D-08 -0.12213238D-03
  0.14817083D-03 -0.26038446D-04  0.49330608D-07 -0.29317115D-07  0.23975646D-07
 -0.54270046D-04  0.93201516D-04 -0.38931471D-04  0.16275386D-07  0.37976453D-08
  0.23026391D-07  0.78046157D-06  0.14529017D-05  0.23900096D-05  0.32093817D-05
  0.30217539D-05  0.24831763D-06 -0.20097179D-05 -0.53401968D-05  0.71989583D-08
 -0.35810105D-03 -0.33509436D-03 -0.25954353D-03 -0.30662174D-03 -0.28692241D-03
 -0.22223249D-03 -0.70730101D-07 -0.66185947D-07 -0.51263575D-07  0.26965500D-03
  0.46134469D-03  0.43708200D-03  0.90243112D-07 -0.29726694D-02  0.14729525D-02
  0.73052770D-03  0.23349624D-06 -0.98500281D-03  0.13619902D-03  0.94883923D-05
  0.14815819D-07  0.13058665D-03 -0.19784627D-03  0.67259612D-04  0.27144521D-03
  0.30696702D-07  0.80248910D-08 -0.36693925D-04 -0.63372939D-04  0.10006686D-03
 -0.61847054D-03 -0.74994172D-07 -0.10357653D-06  0.14185387D-04  0.26407415D-04
  0.43439949D-04  0.58332560D-04  0.54922305D-04  0.45133314D-05 -0.18289207D-04
 -0.48597848D-04  0.65513294D-07 -0.65277935D-03 -0.61084063D-03 -0.47311968D-03
 -0.58602936D-03 -0.54837909D-03 -0.42474080D-03 -0.10968319D-06 -0.10263644D-06
 -0.79495891D-07  0.17672250D-03  0.76642230D-04  0.23031347D-03 -0.71830747D-09
  0.34978847D-02 -0.12845638D-02  0.55986015D-03 -0.14612962D-06  0.27729883D-03
 -0.65240243D-04  0.24030260D-04 -0.32358568D-08 -0.28215370D-03 -0.96523734D-05
  0.29180608D-03 -0.20574993D-03 -0.21437442D-06 -0.77320903D-07  0.86519815D-04
  0.11427258D-03 -0.20079239D-03 -0.10917656D-02  0.16124918D-07 -0.10039450D-06
  0.55287630D+00  0.10161879D+01  0.16608505D+01  0.22294153D+01  0.21630907D+01
  0.21556420D+00  0.48362644D+00  0.13201541D+01 -0.14939561D-02  0.63123247D-06
  0.62086782D-06  0.47591986D-06  0.61483118D-02  0.60473584D-02  0.46355405D-02
  0.41618326D-06  0.40934966D-06  0.31378278D-06  0.96914218D-02  0.23963875D-07
  0.51324948D-03  0.35281007D-07 -0.55937215D-02 -0.20574249D-06 -0.18149810D-02
 -0.11857988D-06 -0.65840034D-03 -0.11304620D-07 -0.55043199D-04 -0.58901384D-08
  0.14382119D-02  0.74734253D-03 -0.21855544D-02 -0.17489256D-06  0.10416708D-05
  0.39146094D-06  0.25723088D-04 -0.56519003D-03  0.53946694D-03 -0.14354213D-06
 -0.13228004D-06 -0.14680458D-06 -0.20998478D-04 -0.37878258D-04 -0.55842537D-04
  0.21877311D-03  0.28548092D-03  0.66492448D-08 -0.11567273D-04 -0.73373511D-08
 -0.84518967D-04 -0.15246016D-03 -0.22476646D-03 -0.53524262D-03  0.48062175D-03
 -0.70323352D-03  0.47117643D-04 -0.88255035D-07  0.66612876D-04  0.12016012D-03
  0.17714770D-03 -0.37600707D-03 -0.47663364D-03  0.40944272D-04  0.27999074D-03
  0.29272813D-07  0.66610945D-04  0.12015664D-03  0.17714256D-03 -0.37600855D-03
 -0.47663038D-03 -0.40882975D-04  0.28000418D-03  0.38819514D-08 -0.84518268D-04
 -0.15245890D-03 -0.22476460D-03 -0.53524139D-03  0.48061946D-03  0.70322406D-03
  0.46961860D-04  0.74526531D-07
MO    2     MO 0.0        OCC NO =    2.0000000  ORB. ENERGY =  -10.211685
  0.31198528D+00  0.58078956D+00  0.95539336D+00  0.12829329D+01  0.12079297D+01
  0.99263626D-01  0.26403482D+00  0.70158995D+00 -0.94579227D-03 -0.38193809D-04
 -0.35739995D-04 -0.27682008D-04 -0.43591926D-03 -0.40791302D-03 -0.31594440D-03
 -0.40378871D-07 -0.37784675D-07 -0.29265691D-07  0.68036840D-02  0.12491194D-02
  0.16403332D-03  0.21518884D-06 -0.74053836D-03 -0.28903428D-03 -0.63752994D-03
 -0.82522459D-07  0.52622355D-04 -0.15885777D-03  0.17979132D-03 -0.10674539D-07
  0.12819932D-02  0.76102595D-03 -0.20430192D-02 -0.51008344D-03  0.93953880D-06
  0.30382001D-06 -0.36750136D-04 -0.22001012D-04  0.58751149D-04 -0.65211758D-03
 -0.86536112D-07 -0.10684399D-06  0.39978327D-02  0.74423367D-02  0.12242574D-01
  0.16439722D-01  0.15478618D-01  0.12719811D-02  0.33601111D-02  0.89284444D-02
 -0.12036167D-04 -0.34985871D-03 -0.32738155D-03 -0.25356966D-03 -0.13574297D-02
 -0.12702198D-02 -0.98383433D-03 -0.14799503D-06 -0.13848688D-06 -0.10726344D-06
  0.62589719D-03  0.64009338D-03  0.11102436D-02  0.17224625D-06  0.68120997D-03
  0.33462002D-03 -0.57417560D-04  0.43906359D-07 -0.29460500D-03  0.10782457D-03
  0.12597205D-03  0.25533731D-07  0.18746658D-03 -0.15694905D-03 -0.30517528D-04
  0.42615405D-03  0.90881746D-07  0.26535434D-07  0.48469621D-03 -0.62070349D-03
  0.13600728D-03 -0.19041597D-03  0.98452674D-07 -0.12851363D-06 -0.28553537D-07
 -0.53155059D-07 -0.87439573D-07 -0.11741667D-06 -0.11055222D-06 -0.90848120D-08
  0.33588736D-06  0.89251560D-06 -0.12031734D-08 -0.41988494D-03 -0.39290886D-03
 -0.30432310D-03 -0.26242267D-05 -0.24556296D-05 -0.19019800D-05 -0.59245492D-07
 -0.55439184D-07 -0.42939791D-07 -0.34097155D-05  0.62959576D-03  0.49636797D-05
  0.90416848D-07  0.18495779D-04  0.20626956D-03 -0.36630642D-05  0.27913076D-07
 -0.13424414D-04  0.97799991D-04  0.16374375D-05  0.13196573D-07 -0.39368040D-05
  0.47920617D-06  0.34575978D-05 -0.25692570D-03 -0.29254355D-07 -0.50979932D-07
  0.40639509D-05 -0.15058433D-05 -0.25581076D-05 -0.10136128D-02 -0.57164118D-07
 -0.13378515D-06 -0.39447246D-02 -0.73434710D-02 -0.12079941D-01 -0.16221333D-01
 -0.15272997D-01 -0.12550838D-02 -0.33136543D-02 -0.88049999D-02  0.11869755D-04
 -0.35257630D-03 -0.32992455D-03 -0.25553932D-03  0.13365653D-02  0.12506959D-02
  0.96871228D-03  0.22926050D-07  0.21453134D-07  0.16616282D-07 -0.62461260D-03
  0.64691369D-03 -0.10918884D-02  0.31931624D-07 -0.72775809D-03  0.34308410D-03
  0.67596511D-04  0.47829724D-07  0.33964091D-03  0.10664119D-03 -0.12985001D-03
  0.55434757D-08 -0.18500483D-03  0.15448872D-03  0.30516109D-04  0.42255526D-03
 -0.37389105D-07  0.68044434D-07 -0.47740750D-03  0.60851203D-03 -0.13110453D-03
 -0.18290394D-03 -0.96024383D-07  0.62623173D-07 -0.30747289D+00 -0.57238933D+00
 -0.94157507D+00 -0.12643773D+01 -0.11904589D+01 -0.97827931D-01 -0.26021548D+00
 -0.69144127D+00  0.93211113D-03 -0.40523933D-04 -0.37920417D-04 -0.29370829D-04
  0.42985788D-03  0.40224107D-03  0.31155125D-03 -0.19623105D-07 -0.18362391D-07
 -0.14222382D-07 -0.67149373D-02  0.12412055D-02 -0.16249101D-03  0.20007043D-06
  0.77449567D-03 -0.29573942D-03  0.64558922D-03  0.26667172D-08 -0.86577697D-04
 -0.15929213D-03 -0.18335586D-03 -0.32332031D-07 -0.12713238D-02 -0.74955312D-03
  0.20208769D-02 -0.50381907D-03 -0.96056167D-06 -0.44143398D-06  0.37496587D-04
  0.27895655D-04 -0.65392242D-04 -0.64683093D-03  0.86001064D-09 -0.91929120D-07
 -0.69210365D-06 -0.12720880D-05 -0.20790920D-05 -0.27908348D-05 -0.27078081D-05
 -0.26984837D-06 -0.12106755D-05 -0.33047782D-05  0.37398615D-08 -0.30822785D-02
 -0.30316685D-02 -0.23238944D-02  0.10734249D-04  0.10557996D-04  0.80931234D-05
 -0.45574451D-06 -0.44826132D-06 -0.34361012D-06  0.10352601D-04  0.18258779D-02
 -0.55581520D-05  0.27157862D-06 -0.31032328D-04  0.16896183D-02 -0.95547191D-05
  0.25440410D-06  0.43445198D-05 -0.32026533D-03  0.14519307D-05 -0.50489084D-07
  0.76914302D-05 -0.23275407D-06 -0.74586762D-05 -0.18995703D-02 -0.10297003D-06
 -0.29158793D-06 -0.96974976D-05  0.15458053D-05  0.81516923D-05  0.26117267D-02
  0.15304215D-06  0.39416700D-06  0.65879128D-07  0.11883655D-06  0.17519639D-06
 -0.19441082D-05  0.38221993D-06  0.61228531D-03  0.23523167D-05  0.79405442D-07
  0.99852801D-04  0.18012021D-03  0.26554466D-03 -0.37077026D-03 -0.26094975D-03
 -0.68126275D-03 -0.49225043D-03 -0.13890186D-06 -0.48947794D-04 -0.88294836D-04
 -0.13016986D-03 -0.22078216D-03  0.18767184D-03  0.20977680D-04  0.43012059D-03
  0.34315195D-07  0.48182293D-04  0.86913982D-04  0.12813412D-03  0.21408671D-03
 -0.18939512D-03  0.23965779D-04 -0.42208546D-03 -0.20437111D-07 -0.99148058D-04
 -0.17884895D-03 -0.26367050D-03  0.35757314D-03  0.26687158D-03 -0.66168318D-03
  0.48277949D-03 -0.70097958D-07
MO    3     MO 0.0        OCC NO =    2.0000000  ORB. ENERGY =  -10.211680
  0.30747031D+00  0.57238452D+00  0.94156716D+00  0.12643667D+01  0.11904489D+01
  0.97827109D-01  0.26024715D+00  0.69152542D+00 -0.93222457D-03  0.16792336D-03
  0.15713489D-03  0.12170705D-03 -0.41304249D-03 -0.38650601D-03 -0.29936384D-03
 -0.23101809D-07 -0.21617601D-07 -0.16743668D-07  0.60385040D-02  0.52731873D-03
  0.12074881D-03  0.12259116D-06  0.23345422D-02  0.47079048D-03  0.55304624D-03
  0.10899215D-06 -0.23228818D-02  0.28173355D-04 -0.24739427D-03 -0.14895458D-07
  0.72867149D-03  0.77545833D-03 -0.15041298D-02 -0.40663574D-03  0.60612915D-06
  0.23714911D-06  0.59992099D-04  0.39647164D-03 -0.45646374D-03 -0.36089263D-03
  0.11775409D-06  0.51253757D-07  0.36242630D-02  0.67469019D-02  0.11098590D-01
  0.14903544D-01  0.14032248D-01  0.11531233D-02  0.31710032D-02  0.84259494D-02
 -0.11358768D-04  0.20910739D-03  0.19567300D-03  0.15155630D-03 -0.14284212D-02
 -0.13366503D-02 -0.10352873D-02 -0.74542919D-07 -0.69753806D-07 -0.54027019D-07
  0.82942781D-04 -0.48805348D-03  0.12643080D-02  0.21627619D-07 -0.31933247D-02
 -0.58165698D-03  0.70489819D-03 -0.32534750D-07  0.30784313D-02  0.77922952D-04
 -0.26461156D-03 -0.86420308D-08  0.16253412D-03 -0.16411614D-03  0.15820179D-05
  0.25775583D-03  0.58305963D-07  0.17369983D-07  0.49974388D-03 -0.83362183D-03
  0.33387795D-03 -0.48582948D-03  0.25667497D-07 -0.25234318D-06 -0.33378998D-05
 -0.62138102D-05 -0.10221659D-04 -0.13725973D-04 -0.12923521D-04 -0.10620118D-05
  0.46760055D-04  0.12425022D-03 -0.16749798D-06  0.30195207D-05  0.28255274D-05
  0.21884802D-05 -0.36505627D-03 -0.34160273D-03 -0.26458451D-03 -0.12631668D-07
 -0.11820129D-07 -0.91551469D-08 -0.46612491D-03 -0.45227919D-05  0.69037300D-03
  0.34301180D-07  0.25280013D-02 -0.15568075D-05 -0.50136240D-03 -0.37166358D-07
 -0.18294817D-02 -0.68699803D-06  0.22478808D-03  0.16657503D-07 -0.53474755D-03
  0.62286510D-04  0.47246104D-03  0.20111346D-05 -0.27369984D-06 -0.60115652D-07
  0.57071439D-03 -0.22194915D-03 -0.34876524D-03  0.71880474D-05  0.24812851D-06
  0.25595436D-07  0.36822221D-02  0.68547982D-02  0.11276079D-01  0.15141881D-01
  0.14256652D-01  0.11715640D-02  0.32197086D-02  0.85553685D-02 -0.11533234D-04
 -0.20431652D-03 -0.19118992D-03 -0.14808398D-03 -0.14480129D-02 -0.13549833D-02
 -0.10494870D-02 -0.10264571D-06 -0.96051091D-07 -0.74395283D-07  0.92004287D-04
  0.47898964D-03  0.12802510D-02  0.12559002D-06 -0.31830331D-02  0.57689193D-03
  0.70387180D-03  0.11541551D-06  0.30737752D-02 -0.79537425D-04 -0.26273257D-03
 -0.28222442D-07  0.16520685D-03 -0.16635907D-03  0.11522183D-05 -0.26406681D-03
  0.25502825D-07 -0.65787843D-07  0.50685754D-03 -0.84266737D-03  0.33580984D-03
  0.48795987D-03  0.63326468D-07 -0.71003123D-07  0.31198273D+00  0.58078481D+00
  0.95538556D+00  0.12829225D+01  0.12079199D+01  0.99262816D-01  0.26406604D+00
  0.70167292D+00 -0.94590411D-03 -0.16745894D-03 -0.15670031D-03 -0.12137045D-03
 -0.41931077D-03 -0.39237157D-03 -0.30390695D-03  0.18325812D-07  0.17148445D-07
  0.13282134D-07  0.61369417D-02 -0.54536985D-03  0.12323838D-03 -0.13286684D-06
  0.23234571D-02 -0.46639705D-03  0.54380647D-03 -0.32564808D-07 -0.23218287D-02
 -0.25914538D-04 -0.24474178D-03 -0.15013877D-07  0.74733732D-03  0.78638727D-03
 -0.15337246D-02  0.41395933D-03  0.61180806D-06  0.38668319D-06  0.59514971D-04
  0.39603882D-03 -0.45555379D-03  0.37048486D-03  0.16781634D-06  0.17751539D-06
 -0.94630109D-04 -0.17393035D-03 -0.28427058D-03 -0.38158592D-03 -0.37023382D-03
 -0.36895891D-04 -0.16640008D-03 -0.45422193D-03  0.51402152D-06  0.22564847D-04
  0.22194339D-04  0.17012843D-04  0.14254245D-02  0.14020195D-02  0.10747037D-02
  0.87346364D-07  0.85912163D-07  0.65855088D-07  0.14214684D-02 -0.13330061D-04
 -0.73266910D-03 -0.42850047D-07 -0.42565484D-02 -0.12416492D-04 -0.12852548D-02
 -0.83208371D-07  0.59653778D-03  0.23512085D-05  0.19457528D-03  0.11979928D-07
  0.10895011D-02 -0.62089847D-04 -0.10274112D-02  0.13650141D-04  0.60940985D-06
  0.12804693D-06 -0.13698520D-02  0.25137519D-03  0.11184768D-02 -0.18665426D-04
 -0.72735486D-06 -0.11229096D-06  0.95725869D-05  0.17267581D-04  0.25456966D-04
 -0.26005914D-03  0.52577802D-04 -0.44004069D-05  0.32789242D-03  0.19371603D-07
  0.47793522D-04  0.86212696D-04  0.12710024D-03 -0.90330072D-03  0.40788752D-03
 -0.13331947D-02 -0.65676237D-03 -0.22671661D-06 -0.52467955D-04 -0.94644706D-04
 -0.13953124D-03 -0.46341586D-03 -0.11866122D-03 -0.21695749D-03  0.54448055D-03
  0.17726162D-08 -0.53177671D-04 -0.95924931D-04 -0.14141863D-03 -0.46663019D-03
 -0.11591894D-03  0.21681507D-03  0.55058465D-03  0.47900573D-07  0.49241469D-04
  0.88824584D-04  0.13095085D-03 -0.90861539D-03  0.40404599D-03  0.13428554D-02
 -0.66415836D-03  0.10925580D-06
MO    4     MO 0.0        OCC NO =    2.0000000  ORB. ENERGY =  -10.198348
 -0.16177571D-03 -0.30116049D-03 -0.49540618D-03 -0.66524736D-03 -0.62635546D-03
 -0.51471798D-04 -0.95844662D-04 -0.25467721D-03  0.34332267D-06  0.23283450D-04
  0.21787573D-04  0.16875317D-04  0.60369977D-03  0.56491425D-03  0.43754792D-03
  0.46822059D-07  0.43813911D-07  0.33935567D-07 -0.39014858D-03 -0.11068728D-03
 -0.99078232D-03 -0.85474087D-07  0.95470289D-03  0.26990759D-03 -0.13324662D-03
  0.29889403D-07 -0.22638771D-03 -0.64716977D-05 -0.39778481D-04 -0.45531026D-08
 -0.51990620D-04 -0.37232498D-03  0.42431560D-03  0.30787514D-03 -0.10955547D-06
 -0.74697041D-07  0.40849647D-03 -0.12108833D-03 -0.28740814D-03 -0.76665715D-03
  0.13559713D-06 -0.88112511D-07  0.12815098D-01  0.23856495D-01  0.39243710D-01
  0.52697716D-01  0.49616887D-01  0.40773499D-02  0.10910403D-01  0.28990984D-01
 -0.39081871D-04  0.16053385D-02  0.15022013D-02  0.11635130D-02  0.11684167D-02
  0.10933502D-02  0.84684195D-03  0.31403035D-06  0.29385504D-06  0.22760209D-06
  0.59068298D-03 -0.12666966D-02 -0.94013023D-03 -0.25109112D-06 -0.72144493D-03
 -0.18272482D-03 -0.35196076D-03 -0.49472950D-07 -0.55187633D-03 -0.54093596D-04
 -0.26859265D-04 -0.83020061D-08 -0.21855022D-03  0.26062397D-03 -0.42073742D-04
 -0.23603013D-03 -0.55089606D-07  0.12284467D-07 -0.40067402D-03  0.12774917D-03
  0.27292485D-03 -0.17391301D-02 -0.30435334D-06 -0.27499788D-06  0.43765026D+00
  0.81472658D+00  0.13402176D+01  0.17996872D+01  0.16944734D+01  0.13924616D+00
  0.37050275D+00  0.98449519D+00 -0.13271683D-02  0.63457215D-07  0.59380319D-07
  0.45992352D-07  0.51979370D-03  0.48639884D-03  0.37673470D-03  0.62971148D-07
  0.58925479D-07  0.45640061D-07  0.92043277D-02 -0.47858995D-07 -0.94430362D-03
 -0.75851112D-07 -0.36742333D-04  0.75403049D-07  0.31250267D-03  0.19039956D-07
  0.14887878D-02 -0.32520192D-07 -0.15602642D-03 -0.12685152D-07  0.12772859D-02
  0.13099638D-02 -0.25872498D-02 -0.14762152D-06  0.10792007D-05  0.54111151D-06
  0.23887815D-03 -0.20368788D-03 -0.35190274D-04 -0.14983164D-06  0.80426176D-07
 -0.10151975D-07  0.12816240D-01  0.23858620D-01  0.39247206D-01  0.52702411D-01
  0.49621306D-01  0.40777131D-02  0.10911381D-01  0.28993581D-01 -0.39085373D-04
 -0.16051190D-02 -0.15019959D-02 -0.11633539D-02  0.11688006D-02  0.10937094D-02
  0.84712022D-03 -0.13594487D-06 -0.12721091D-06 -0.98529764D-07  0.59070761D-03
  0.12665630D-02 -0.94048478D-03  0.10389454D-06 -0.72167266D-03  0.18270469D-03
 -0.35202457D-03  0.57665235D-08 -0.55167609D-03  0.54068978D-04 -0.26858767D-04
  0.75478566D-08 -0.21849585D-03  0.26058650D-03 -0.42090651D-04  0.23631673D-03
 -0.45572059D-07  0.80570783D-07 -0.40036844D-03  0.12740465D-03  0.27296378D-03
  0.17393401D-02 -0.79619840D-07  0.19302037D-06 -0.16180200D-03 -0.30120944D-03
 -0.49548670D-03 -0.66535548D-03 -0.62645726D-03 -0.51480164D-04 -0.95864011D-04
 -0.25472863D-03  0.34339199D-06 -0.23134063D-04 -0.21647783D-04 -0.16767045D-04
  0.60372056D-03  0.56493370D-03  0.43756299D-03  0.48105186D-07  0.45014602D-07
  0.34865549D-07 -0.39019097D-03  0.11045701D-03 -0.99085643D-03 -0.63605142D-07
  0.95478568D-03 -0.26996801D-03 -0.13317996D-03 -0.51904792D-07 -0.22646955D-03
  0.64737899D-05 -0.39783214D-04 -0.24582283D-08 -0.52064000D-04 -0.37226994D-03
  0.42433394D-03 -0.30802408D-03 -0.15232241D-06 -0.12884806D-06  0.40869228D-03
 -0.12126395D-03 -0.28742833D-03  0.76640588D-03  0.23167029D-06  0.11471604D-06
  0.18459785D-05  0.33929124D-05  0.55453530D-05  0.74437131D-05  0.72222643D-05
  0.71973942D-06  0.66642213D-04  0.18191311D-03 -0.20586248D-06  0.59141064D-07
  0.58169986D-07  0.44589606D-07  0.41783083D-03  0.41097018D-03  0.31502498D-03
  0.26732472D-07  0.26293533D-07  0.20155038D-07 -0.18387246D-03 -0.80105296D-07
 -0.62817767D-03 -0.40943251D-07 -0.23775878D-02 -0.77924109D-07 -0.61960629D-03
 -0.40809883D-07 -0.74449260D-05  0.68025421D-08  0.35159510D-04  0.33472672D-08
 -0.30970574D-04  0.10300586D-03 -0.72035287D-04  0.36381635D-07  0.56140986D-07
  0.16982475D-07 -0.23355180D-03  0.12033674D-04  0.22151813D-03  0.21742446D-07
 -0.16581932D-06 -0.24631849D-07  0.10616758D-03  0.19151117D-03  0.28233795D-03
 -0.93044612D-03  0.12660036D-03  0.16605590D-06  0.16648687D-02  0.10824310D-06
 -0.14994608D-05 -0.27048134D-05 -0.39876080D-05 -0.26931444D-03  0.31572244D-04
 -0.26074098D-04 -0.50298194D-03 -0.36238044D-07 -0.67670790D-04 -0.12206845D-03
 -0.17996107D-03 -0.42294817D-03  0.19869687D-03 -0.74455843D-03 -0.40435450D-03
 -0.14007409D-06 -0.67661740D-04 -0.12205213D-03 -0.17993700D-03 -0.42283201D-03
  0.19866927D-03  0.74447002D-03 -0.40464432D-03  0.69261870D-07 -0.15022579D-05
 -0.27098590D-05 -0.39950464D-05 -0.26935100D-03  0.31583985D-04  0.25978283D-04
 -0.50301237D-03 -0.40094651D-07
MO    5     MO 0.0        OCC NO =    2.0000000  ORB. ENERGY =  -10.188396
  0.39860556D-02  0.74204125D-02  0.12206509D-01  0.16391293D-01  0.15433020D-01
  0.12682340D-02  0.34067324D-02  0.90523259D-02 -0.12203168D-04  0.17376378D-03
  0.16260009D-03  0.12594005D-03 -0.11724239D-02 -0.10970999D-02 -0.84974626D-03
 -0.57811938D-07 -0.54097730D-07 -0.41900783D-07 -0.51710166D-03 -0.31048403D-03
  0.68290705D-03  0.23547874D-08 -0.18453583D-03 -0.97218619D-04 -0.96088588D-04
 -0.20661938D-07  0.13906300D-02  0.67014766D-04  0.74893513D-04  0.15536180D-07
 -0.18980300D-03  0.14263604D-03  0.47166963D-04  0.38341664D-03 -0.43457649D-07
  0.82191275D-07 -0.37260509D-03  0.52097889D-03 -0.14837379D-03 -0.15233598D-03
 -0.70769411D-07  0.70089944D-07 -0.30757120D+00 -0.57257234D+00 -0.94187612D+00
 -0.12647816D+01 -0.11908395D+01 -0.97859210D-01 -0.26035088D+00 -0.69180104D+00
  0.93259613D-03  0.65929134D-03  0.61693426D-03  0.47783943D-03 -0.14489950D-03
 -0.13559023D-03 -0.10501988D-03  0.77529299D-07  0.72548322D-07  0.56191480D-07
 -0.67210993D-02 -0.12546824D-02  0.14442850D-03 -0.14603752D-06  0.64586536D-03
  0.40361249D-04 -0.40860008D-03 -0.24796078D-07 -0.11229424D-02 -0.90724143D-04
  0.16414876D-03 -0.88938266D-09 -0.10325633D-02 -0.10469637D-02  0.20795270D-02
 -0.27272099D-03 -0.93289269D-06 -0.46512525D-06 -0.17209908D-03  0.30612394D-03
 -0.13402486D-03 -0.31631818D-03 -0.46495076D-07  0.18473331D-07 -0.12595839D-03
 -0.23448323D-03 -0.38572270D-03 -0.51796085D-03 -0.48767967D-03 -0.40075885D-04
 -0.10607569D-03 -0.28186297D-03  0.37997098D-06  0.25709223D-02  0.24057499D-02
  0.18633463D-02 -0.86544767D-05 -0.80984579D-05 -0.62725687D-05  0.35929052D-06
  0.33620740D-06  0.26040563D-06  0.58517619D-06 -0.21136938D-02  0.59474583D-05
 -0.29509532D-06  0.64446491D-05 -0.73332214D-03 -0.52636508D-05 -0.10265569D-06
 -0.58637651D-05  0.93008029D-04  0.45586777D-06  0.12650376D-07 -0.39123684D-06
 -0.74262475D-06  0.11338616D-05  0.78709726D-03  0.56326463D-07  0.10780277D-06
 -0.51696024D-05  0.28145349D-05  0.23550675D-05  0.19650578D-02  0.13988813D-06
  0.27715216D-06  0.31181876D+00  0.58047957D+00  0.95488343D+00  0.12822482D+01
  0.12072850D+01  0.99210645D-01  0.26394742D+00  0.70135772D+00 -0.94547920D-03
  0.65897299D-03  0.61663636D-03  0.47760869D-03  0.14900835D-03  0.13943511D-03
  0.10799788D-03  0.12249819D-06  0.11462812D-06  0.88783911D-07  0.68059165D-02
 -0.12535754D-02 -0.14845754D-03 -0.19162494D-06 -0.66293596D-03  0.51452849D-04
  0.41215633D-03  0.37054762D-07  0.11460331D-02 -0.91517488D-04 -0.16610024D-03
 -0.22823703D-07  0.10449044D-02  0.10566087D-02 -0.21015131D-02 -0.27037656D-03