 Entering Gaussian System, Link 0=g16
 Initial command:
 /software/gaussian//g16/l1.exe "/software/scratch/Gau-9464.inp" -scrdir="/software/scratch/"
 Entering Link 1 = /software/gaussian//g16/l1.exe PID=      9466.
  
 Copyright (c) 1988-2017, Gaussian, Inc.  All Rights Reserved.
  
 This is part of the Gaussian(R) 16 program.  It is based on
 the Gaussian(R) 09 system (copyright 2009, Gaussian, Inc.),
 the Gaussian(R) 03 system (copyright 2003, Gaussian, Inc.),
 the Gaussian(R) 98 system (copyright 1998, Gaussian, Inc.),
 the Gaussian(R) 94 system (copyright 1995, Gaussian, Inc.),
 the Gaussian 92(TM) system (copyright 1992, Gaussian, Inc.),
 the Gaussian 90(TM) system (copyright 1990, Gaussian, Inc.),
 the Gaussian 88(TM) system (copyright 1988, Gaussian, Inc.),
 the Gaussian 86(TM) system (copyright 1986, Carnegie Mellon
 University), and the Gaussian 82(TM) system (copyright 1983,
 Carnegie Mellon University). Gaussian is a federally registered
 trademark of Gaussian, Inc.
  
 This software contains proprietary and confidential information,
 including trade secrets, belonging to Gaussian, Inc.
  
 This software is provided under written license and may be
 used, copied, transmitted, or stored only in accord with that
 written license.
  
 The following legend is applicable only to US Government
 contracts under FAR:
  
                    RESTRICTED RIGHTS LEGEND
  
 Use, reproduction and disclosure by the US Government is
 subject to restrictions as set forth in subparagraphs (a)
 and (c) of the Commercial Computer Software - Restricted
 Rights clause in FAR 52.227-19.
  
 Gaussian, Inc.
 340 Quinnipiac St., Bldg. 40, Wallingford CT 06492
  
  
 ---------------------------------------------------------------
 Warning -- This program may not be used in any manner that
 competes with the business of Gaussian, Inc. or will provide
 assistance to any competitor of Gaussian, Inc.  The licensee
 of this program is prohibited from giving any competitor of
 Gaussian, Inc. access to this program.  By using this program,
 the user acknowledges that Gaussian, Inc. is engaged in the
 business of creating and licensing software in the field of
 computational chemistry and represents and warrants to the
 licensee that it is not a competitor of Gaussian, Inc. and that
 it will not use this program in any manner prohibited above.
 ---------------------------------------------------------------
  

 Cite this work as:
 Gaussian 16, Revision B.01,
 M. J. Frisch, G. W. Trucks, H. B. Schlegel, G. E. Scuseria, 
 M. A. Robb, J. R. Cheeseman, G. Scalmani, V. Barone, 
 G. A. Petersson, H. Nakatsuji, X. Li, M. Caricato, A. V. Marenich, 
 J. Bloino, B. G. Janesko, R. Gomperts, B. Mennucci, H. P. Hratchian, 
 J. V. Ortiz, A. F. Izmaylov, J. L. Sonnenberg, D. Williams-Young, 
 F. Ding, F. Lipparini, F. Egidi, J. Goings, B. Peng, A. Petrone, 
 T. Henderson, D. Ranasinghe, V. G. Zakrzewski, J. Gao, N. Rega, 
 G. Zheng, W. Liang, M. Hada, M. Ehara, K. Toyota, R. Fukuda, 
 J. Hasegawa, M. Ishida, T. Nakajima, Y. Honda, O. Kitao, H. Nakai, 
 T. Vreven, K. Throssell, J. A. Montgomery, Jr., J. E. Peralta, 
 F. Ogliaro, M. J. Bearpark, J. J. Heyd, E. N. Brothers, K. N. Kudin, 
 V. N. Staroverov, T. A. Keith, R. Kobayashi, J. Normand, 
 K. Raghavachari, A. P. Rendell, J. C. Burant, S. S. Iyengar, 
 J. Tomasi, M. Cossi, J. M. Millam, M. Klene, C. Adamo, R. Cammi, 
 J. W. Ochterski, R. L. Martin, K. Morokuma, O. Farkas, 
 J. B. Foresman, and D. J. Fox, Gaussian, Inc., Wallingford CT, 2016.
 
 ******************************************
 Gaussian 16:  EM64L-G16RevB.01 20-Dec-2017
                24-Jul-2023 
 ******************************************
 %mem=3200mb
 %NProcShared=8
 Will use up to    8 processors via shared memory.
 %chk=Pyridine.chk
 ----------------------------------------------------------------
 # opt freq B3LYP/6-311+G(2d,p) scf=xqc out=wfn geom=connectivity
 ----------------------------------------------------------------
 1/18=20,19=15,26=3,38=1,57=2/1,3;
 2/9=110,12=2,17=6,18=5,40=1/2;
 3/5=4,6=6,7=112,11=2,25=1,30=1,71=1,74=-5/1,2,3;
 4//1;
 5/5=2,8=3,13=1,38=5/2,8;
 6/7=2,8=2,9=2,10=2,28=1/1;
 7//1,2,3,16;
 1/18=20,19=15,26=3/3(2);
 2/9=110/2;
 99/6=100/99;
 2/9=110/2;
 3/5=4,6=6,7=112,11=2,25=1,30=1,71=1,74=-5/1,2,3;
 4/5=5,16=3,69=1/1;
 5/5=2,8=3,13=1,38=5/2,8;
 7//1,2,3,16;
 1/18=20,19=15,26=3/3(-5);
 2/9=110/2;
 6/7=2,8=2,9=2,10=2,19=2,28=1/1;
 99/6=100,9=1/99;
 -------------------
 Title Card Required
 -------------------
 Symbolic Z-matrix:
 Charge =  0 Multiplicity = 1
 C                    -3.37707   0.17417   0. 
 C                    -1.97019   0.17417   0. 
 C                    -1.3035    1.40078   0. 
 C                    -2.05757   2.57557  -0.00024 
 C                    -3.46078   2.47276  -0.00038 
 N                    -4.12031   1.29781  -0.0002 
 H                    -0.20496   1.44055  -0.00095 
 H                    -3.94262  -0.77465   0.00012 
 H                    -1.41546  -0.77273   0.00026 
 H                    -1.57354   3.56049  -0.00034 
 H                    -4.09413   3.37782  -0.00046 
 

 GradGradGradGradGradGradGradGradGradGradGradGradGradGradGradGradGradGrad
 Berny optimization.
 Initialization pass.
                           ----------------------------
                           !    Initial Parameters    !
                           ! (Angstroms and Degrees)  !
 --------------------------                            --------------------------
 ! Name  Definition              Value          Derivative Info.                !
 --------------------------------------------------------------------------------
 ! R1    R(1,2)                  1.4069         estimate D2E/DX2                !
 ! R2    R(1,6)                  1.3472         estimate D2E/DX2                !
 ! R3    R(1,8)                  1.1046         estimate D2E/DX2                !
 ! R4    R(2,3)                  1.3961         estimate D2E/DX2                !
 ! R5    R(2,9)                  1.0974         estimate D2E/DX2                !
 ! R6    R(3,4)                  1.396          estimate D2E/DX2                !
 ! R7    R(3,7)                  1.0993         estimate D2E/DX2                !
 ! R8    R(4,5)                  1.407          estimate D2E/DX2                !
 ! R9    R(4,10)                 1.0974         estimate D2E/DX2                !
 ! R10   R(5,6)                  1.3474         estimate D2E/DX2                !
 ! R11   R(5,11)                 1.1047         estimate D2E/DX2                !
 ! A1    A(2,1,6)              123.4828         estimate D2E/DX2                !
 ! A2    A(2,1,8)              120.7972         estimate D2E/DX2                !
 ! A3    A(6,1,8)              115.72           estimate D2E/DX2                !
 ! A4    A(1,2,3)              118.5252         estimate D2E/DX2                !
 ! A5    A(1,2,9)              120.3635         estimate D2E/DX2                !
 ! A6    A(3,2,9)              121.1114         estimate D2E/DX2                !
 ! A7    A(2,3,4)              118.7792         estimate D2E/DX2                !
 ! A8    A(2,3,7)              120.5988         estimate D2E/DX2                !
 ! A9    A(4,3,7)              120.6219         estimate D2E/DX2                !
 ! A10   A(3,4,5)              118.5054         estimate D2E/DX2                !
 ! A11   A(3,4,10)             121.1328         estimate D2E/DX2                !
 ! A12   A(5,4,10)             120.3618         estimate D2E/DX2                !
 ! A13   A(4,5,6)              123.4969         estimate D2E/DX2                !
 ! A14   A(4,5,11)             120.7935         estimate D2E/DX2                !
 ! A15   A(6,5,11)             115.7097         estimate D2E/DX2                !
 ! A16   A(1,6,5)              117.2105         estimate D2E/DX2                !
 ! D1    D(6,1,2,3)              0.01           estimate D2E/DX2                !
 ! D2    D(6,1,2,9)            179.9941         estimate D2E/DX2                !
 ! D3    D(8,1,2,3)           -179.9926         estimate D2E/DX2                !
 ! D4    D(8,1,2,9)             -0.0086         estimate D2E/DX2                !
 ! D5    D(2,1,6,5)             -0.001          estimate D2E/DX2                !
 ! D6    D(8,1,6,5)           -179.9985         estimate D2E/DX2                !
 ! D7    D(1,2,3,4)             -0.0113         estimate D2E/DX2                !
 ! D8    D(1,2,3,7)           -179.9425         estimate D2E/DX2                !
 ! D9    D(9,2,3,4)           -179.9952         estimate D2E/DX2                !
 ! D10   D(9,2,3,7)              0.0736         estimate D2E/DX2                !
 ! D11   D(2,3,4,5)              0.0043         estimate D2E/DX2                !
 ! D12   D(2,3,4,10)          -179.9944         estimate D2E/DX2                !
 ! D13   D(7,3,4,5)            179.9354         estimate D2E/DX2                !
 ! D14   D(7,3,4,10)            -0.0632         estimate D2E/DX2                !
 ! D15   D(3,4,5,6)              0.0051         estimate D2E/DX2                !
 ! D16   D(3,4,5,11)           179.9933         estimate D2E/DX2                !
 ! D17   D(10,4,5,6)          -179.9962         estimate D2E/DX2                !
 ! D18   D(10,4,5,11)           -0.008          estimate D2E/DX2                !
 ! D19   D(4,5,6,1)             -0.0067         estimate D2E/DX2                !
 ! D20   D(11,5,6,1)          -179.9955         estimate D2E/DX2                !
 --------------------------------------------------------------------------------
 Trust Radius=3.00D-01 FncErr=1.00D-07 GrdErr=1.00D-06 EigMax=2.50D+02 EigMin=1.00D-04
 Number of steps in this run=     57 maximum allowed number of steps=    100.
 GradGradGradGradGradGradGradGradGradGradGradGradGradGradGradGradGradGrad

                          Input orientation:                          
 ---------------------------------------------------------------------
 Center     Atomic      Atomic             Coordinates (Angstroms)
 Number     Number       Type             X           Y           Z
 ---------------------------------------------------------------------
      1          6           0       -3.377071    0.174171    0.000000
      2          6           0       -1.970193    0.174171    0.000000
      3          6           0       -1.303502    1.400778    0.000000
      4          6           0       -2.057575    2.575565   -0.000241
      5          6           0       -3.460777    2.472760   -0.000382
      6          7           0       -4.120307    1.297809   -0.000197
      7          1           0       -0.204958    1.440554   -0.000950
      8          1           0       -3.942618   -0.774650    0.000122
      9          1           0       -1.415461   -0.772730    0.000264
     10          1           0       -1.573539    3.560489   -0.000342
     11          1           0       -4.094126    3.377823   -0.000463
 ---------------------------------------------------------------------
                    Distance matrix (angstroms):
                    1          2          3          4          5
     1  C    0.000000
     2  C    1.406878   0.000000
     3  C    2.409202   1.396081   0.000000
     4  C    2.740030   2.402983   1.395977   0.000000
     5  C    2.300113   2.739590   2.408938   1.406963   0.000000
     6  N    1.347205   2.426016   2.818686   2.426422   1.347401
     7  H    3.415557   2.172506   1.099264   2.172657   3.415524
     8  H    1.104584   2.188772   3.420149   3.844129   3.282962
     9  H    2.178195   1.097428   2.176390   3.409309   3.836212
    10  H    3.836649   3.409470   2.176527   1.097436   2.178261
    11  H    3.282919   3.843758   3.419984   2.188871   1.104658
                    6          7          8          9         10
     6  N    0.000000
     7  H    3.917950   0.000000
     8  H    2.080062   4.344794   0.000000
     9  H    3.406365   2.522686   2.527158   0.000000
    10  H    3.406721   2.523319   4.940239   4.336101   0.000000
    11  H    2.080179   4.344956   4.155236   4.939872   2.527197
                   11
    11  H    0.000000
 Stoichiometry    C5H5N
 Framework group  C1[X(C5H5N)]
 Deg. of freedom    27
 Full point group                 C1      NOp   1
 Largest Abelian subgroup         C1      NOp   1
 Largest concise Abelian subgroup C1      NOp   1
                         Standard orientation:                         
 ---------------------------------------------------------------------
 Center     Atomic      Atomic             Coordinates (Angstroms)
 Number     Number       Type             X           Y           Z
 ---------------------------------------------------------------------
      1          6           0       -1.154837   -0.719392   -0.000154
      2          6           0       -1.196939    0.686856   -0.000154
      3          6           0        0.009167    1.389956   -0.000154
      4          6           0        1.205994    0.671377    0.000087
      5          6           0        1.145227   -0.734273    0.000228
      6          7           0       -0.009461   -1.428669    0.000043
      7          1           0        0.016051    2.489198    0.000796
      8          1           0       -2.086309   -1.313079   -0.000276
      9          1           0       -2.160017    1.213003   -0.000418
     10          1           0        2.175992    1.184670    0.000188
     11          1           0        2.068838   -1.340254    0.000309
 ---------------------------------------------------------------------
 Rotational constants (GHZ):           5.9762872           5.7335864           2.9262109
 Standard basis: 6-311+G(2d,p) (5D, 7F)
 There are   204 symmetry adapted cartesian basis functions of A   symmetry.
 There are   192 symmetry adapted basis functions of A   symmetry.
   192 basis functions,   292 primitive gaussians,   204 cartesian basis functions
    21 alpha electrons       21 beta electrons
       nuclear repulsion energy       204.6313958003 Hartrees.
 NAtoms=   11 NActive=   11 NUniq=   11 SFac= 1.00D+00 NAtFMM=   60 NAOKFM=F Big=F
 Integral buffers will be    131072 words long.
 Raffenetti 2 integral format.
 Two-electron integral symmetry is turned on.
 One-electron integrals computed using PRISM.
 NBasis=   192 RedAO= T EigKep=  2.02D-05  NBF=   192
 NBsUse=   192 1.00D-06 EigRej= -1.00D+00 NBFU=   192
 ExpMin= 4.38D-02 ExpMax= 6.29D+03 ExpMxC= 9.49D+02 IAcc=3 IRadAn=         5 AccDes= 0.00D+00
 Harris functional with IExCor=  402 and IRadAn=       5 diagonalized for initial guess.
 HarFok:  IExCor=  402 AccDes= 0.00D+00 IRadAn=         5 IDoV= 1 UseB2=F ITyADJ=14
 ICtDFT=  3500011 ScaDFX=  1.000000  1.000000  1.000000  1.000000
 FoFCou: FMM=F IPFlag=           0 FMFlag=      100000 FMFlg1=           0
         NFxFlg=           0 DoJE=T BraDBF=F KetDBF=T FulRan=T
         wScrn=  0.000000 ICntrl=       500 IOpCl=  0 I1Cent=   200000004 NGrid=           0
         NMat0=    1 NMatS0=      1 NMatT0=    0 NMatD0=    1 NMtDS0=    0 NMtDT0=    0
 Petite list used in FoFCou.
 Keep R1 ints in memory in canonical form, NReq=179928303.
 Requested convergence on RMS density matrix=1.00D-08 within  32 cycles.
 Requested convergence on MAX density matrix=1.00D-06.
 Requested convergence on             energy=1.00D-06.
 No special actions if energy rises.
 SCF Done:  E(RB3LYP) =  -248.356243558     A.U. after   12 cycles
            NFock= 12  Conv=0.52D-08     -V/T= 2.0054
 QCSCF skips out because SCF is already converged.

 **********************************************************************

            Population analysis using the SCF Density.

 **********************************************************************

 Orbital symmetries:
       Occupied  (A) (A) (A) (A) (A) (A) (A) (A) (A) (A) (A) (A)
                 (A) (A) (A) (A) (A) (A) (A) (A) (A)
       Virtual   (A) (A) (A) (A) (A) (A) (A) (A) (A) (A) (A) (A)
                 (A) (A) (A) (A) (A) (A) (A) (A) (A) (A) (A) (A)
                 (A) (A) (A) (A) (A) (A) (A) (A) (A) (A) (A) (A)
                 (A) (A) (A) (A) (A) (A) (A) (A) (A) (A) (A) (A)
                 (A) (A) (A) (A) (A) (A) (A) (A) (A) (A) (A) (A)
                 (A) (A) (A) (A) (A) (A) (A) (A) (A) (A) (A) (A)
                 (A) (A) (A) (A) (A) (A) (A) (A) (A) (A) (A) (A)
                 (A) (A) (A) (A) (A) (A) (A) (A) (A) (A) (A) (A)
                 (A) (A) (A) (A) (A) (A) (A) (A) (A) (A) (A) (A)
                 (A) (A) (A) (A) (A) (A) (A) (A) (A) (A) (A) (A)
                 (A) (A) (A) (A) (A) (A) (A) (A) (A) (A) (A) (A)
                 (A) (A) (A) (A) (A) (A) (A) (A) (A) (A) (A) (A)
                 (A) (A) (A) (A) (A) (A) (A) (A) (A) (A) (A) (A)
                 (A) (A) (A) (A) (A) (A) (A) (A) (A) (A) (A) (A)
                 (A) (A) (A)
 The electronic state is 1-A.
 Alpha  occ. eigenvalues --  -14.31854 -10.21756 -10.21753 -10.20243 -10.19360
 Alpha  occ. eigenvalues --  -10.19357  -0.94494  -0.81177  -0.76631  -0.63645
 Alpha  occ. eigenvalues --   -0.63348  -0.53328  -0.48832  -0.47663  -0.43525
 Alpha  occ. eigenvalues --   -0.41198  -0.40385  -0.37340  -0.29795  -0.27196
 Alpha  occ. eigenvalues --   -0.26721
 Alpha virt. eigenvalues --   -0.04270  -0.03094  -0.00025   0.01908   0.02652
 Alpha virt. eigenvalues --    0.04519   0.04981   0.05445   0.06111   0.08454
 Alpha virt. eigenvalues --    0.08519   0.09277   0.09622   0.11410   0.13500
 Alpha virt. eigenvalues --    0.13763   0.13791   0.14302   0.14757   0.15433
 Alpha virt. eigenvalues --    0.16323   0.19112   0.19682   0.20127   0.20471
 Alpha virt. eigenvalues --    0.20729   0.21834   0.22801   0.24320   0.24746
 Alpha virt. eigenvalues --    0.27451   0.29476   0.29968   0.31147   0.31255
 Alpha virt. eigenvalues --    0.31807   0.42210   0.45364   0.46913   0.47191
 Alpha virt. eigenvalues --    0.49867   0.50363   0.52213   0.52730   0.53388
 Alpha virt. eigenvalues --    0.55799   0.56067   0.59920   0.60519   0.60732
 Alpha virt. eigenvalues --    0.61812   0.62048   0.62656   0.64638   0.67646
 Alpha virt. eigenvalues --    0.71655   0.72326   0.75315   0.76465   0.77272
 Alpha virt. eigenvalues --    0.77770   0.80341   0.80343   0.81011   0.81681
 Alpha virt. eigenvalues --    0.84061   0.84617   0.86569   0.91113   0.91442
 Alpha virt. eigenvalues --    0.92314   0.98934   1.03927   1.12365   1.13645
 Alpha virt. eigenvalues --    1.15721   1.17155   1.24234   1.27259   1.30902
 Alpha virt. eigenvalues --    1.30981   1.31010   1.32747   1.34439   1.39775
 Alpha virt. eigenvalues --    1.39927   1.45686   1.46454   1.48176   1.49080
 Alpha virt. eigenvalues --    1.51357   1.57820   1.59814   1.63224   1.70321
 Alpha virt. eigenvalues --    1.79601   1.83271   1.85748   1.90392   1.95284
 Alpha virt. eigenvalues --    1.98144   2.12879   2.13150   2.19712   2.33757
 Alpha virt. eigenvalues --    2.36171   2.44566   2.47263   2.60956   2.63713
 Alpha virt. eigenvalues --    2.66035   2.68081   2.72385   2.73537   2.78376
 Alpha virt. eigenvalues --    2.79879   2.80304   2.80542   2.82429   2.95884
 Alpha virt. eigenvalues --    2.99706   3.04940   3.08016   3.10329   3.11227
 Alpha virt. eigenvalues --    3.18823   3.19374   3.24815   3.27174   3.27292
 Alpha virt. eigenvalues --    3.28053   3.33276   3.39088   3.40685   3.40760
 Alpha virt. eigenvalues --    3.50206   3.53217   3.55232   3.55699   3.55986
 Alpha virt. eigenvalues --    3.56132   3.58311   3.64843   3.66826   3.67064
 Alpha virt. eigenvalues --    3.73248   3.75917   3.79084   3.82238   3.85238
 Alpha virt. eigenvalues --    3.94199   3.94695   3.95631   3.97877   4.40701
 Alpha virt. eigenvalues --    4.48953   4.52278   4.79610   4.93755   5.00163
 Alpha virt. eigenvalues --    5.05899   5.13295   5.22901   5.58509   5.59825
 Alpha virt. eigenvalues --   23.71384  23.95894  23.97264  24.01115  24.03715
 Alpha virt. eigenvalues --   35.64116
          Condensed to atoms (all electrons):
               1          2          3          4          5          6
     1  C    5.055336   0.328678   0.040630  -0.202078   0.119573   0.270822
     2  C    0.328678   4.940208   0.468641   0.055871  -0.202131   0.125292
     3  C    0.040630   0.468641   4.835703   0.468627   0.040562  -0.093338
     4  C   -0.202078   0.055871   0.468627   4.940278   0.328647   0.125309
     5  C    0.119573  -0.202131   0.040562   0.328647   5.055357   0.270884
     6  N    0.270822   0.125292  -0.093338   0.125309   0.270884   6.736868
     7  H    0.004293  -0.035625   0.397727  -0.035586   0.004295   0.000473
     8  H    0.443688  -0.084490   0.018207  -0.005206   0.015437  -0.073544
     9  H   -0.040504   0.400941  -0.046486   0.016853   0.001807   0.002665
    10  H    0.001802   0.016838  -0.046470   0.400943  -0.040488   0.002666
    11  H    0.015423  -0.005194   0.018215  -0.084470   0.443650  -0.073536
               7          8          9         10         11
     1  C    0.004293   0.443688  -0.040504   0.001802   0.015423
     2  C   -0.035625  -0.084490   0.400941   0.016838  -0.005194
     3  C    0.397727   0.018207  -0.046486  -0.046470   0.018215
     4  C   -0.035586  -0.005206   0.016853   0.400943  -0.084470
     5  C    0.004295   0.015437   0.001807  -0.040488   0.443650
     6  N    0.000473  -0.073544   0.002665   0.002666  -0.073536
     7  H    0.581794  -0.000359  -0.006010  -0.006004  -0.000358
     8  H   -0.000359   0.587506  -0.002861   0.000126  -0.000096
     9  H   -0.006010  -0.002861   0.578021  -0.000286   0.000126
    10  H   -0.006004   0.000126  -0.000286   0.577968  -0.002864
    11  H   -0.000358  -0.000096   0.000126  -0.002864   0.587500
 Mulliken charges:
               1
     1  C   -0.037663
     2  C   -0.009029
     3  C   -0.102018
     4  C   -0.009190
     5  C   -0.037592
     6  N   -0.294562
     7  H    0.095358
     8  H    0.101591
     9  H    0.095733
    10  H    0.095768
    11  H    0.101605
 Sum of Mulliken charges =   0.00000
 Mulliken charges with hydrogens summed into heavy atoms:
               1
     1  C    0.063927
     2  C    0.086704
     3  C   -0.006660
     4  C    0.086578
     5  C    0.064012
     6  N   -0.294562
 Electronic spatial extent (au):  <R**2>=            440.6597
 Charge=              0.0000 electrons
 Dipole moment (field-independent basis, Debye):
    X=              0.0153    Y=              2.3157    Z=              0.0004  Tot=              2.3157
 Quadrupole moment (field-independent basis, Debye-Ang):
   XX=            -29.5956   YY=            -36.7898   ZZ=            -38.4336
   XY=             -0.0462   XZ=              0.0013   YZ=              0.0018
 Traceless Quadrupole moment (field-independent basis, Debye-Ang):
   XX=              5.3440   YY=             -1.8501   ZZ=             -3.4939
   XY=             -0.0462   XZ=              0.0013   YZ=              0.0018
 Octapole moment (field-independent basis, Debye-Ang**2):
  XXX=             -0.0390  YYY=             16.2939  ZZZ=              0.0009  XYY=              0.1327
  XXY=             -2.0975  XXZ=             -0.0008  XZZ=             -0.0089  YZZ=             -1.2710
  YYZ=              0.0047  XYZ=              0.0001
 Hexadecapole moment (field-independent basis, Debye-Ang**3):
 XXXX=           -259.1690 YYYY=           -296.1068 ZZZZ=            -45.2023 XXXY=              0.0694
 XXXZ=             -0.0095 YYYX=             -0.3312 YYYZ=              0.0185 ZZZX=             -0.0184
 ZZZY=              0.0041 XXYY=            -82.6181 XXZZ=            -61.0670 YYZZ=            -59.6314
 XXYZ=             -0.0003 YYXZ=             -0.0028 ZZXY=              0.0054
 N-N= 2.046313958003D+02 E-N=-9.859393028156D+02  KE= 2.470297220473D+02
 Calling FoFJK, ICntrl=      2127 FMM=F ISym2X=0 I1Cent= 0 IOpClX= 0 NMat=1 NMatS=1 NMatT=0.
 ***** Axes restored to original set *****
 -------------------------------------------------------------------
 Center     Atomic                   Forces (Hartrees/Bohr)
 Number     Number              X              Y              Z
 -------------------------------------------------------------------
      1        6           0.000585387    0.001199836    0.000005775
      2        6          -0.005524399   -0.002260799    0.000034362
      3        6           0.002485507    0.000011799   -0.000099381
      4        6          -0.005823345    0.001846295    0.000003552
      5        6           0.000581558   -0.001179864    0.000035226
      6        7           0.012906871    0.000607588   -0.000011043
      7        1          -0.010115290   -0.000349832    0.000059175
      8        1           0.006976393    0.010183379   -0.000001444
      9        1          -0.005203036    0.007982598   -0.000015495
     10        1          -0.004599332   -0.008356220   -0.000004886
     11        1           0.007729685   -0.009684780   -0.000005842
 -------------------------------------------------------------------
 Cartesian Forces:  Max     0.012906871 RMS     0.005044478

 GradGradGradGradGradGradGradGradGradGradGradGradGradGradGradGradGradGrad
 Berny optimization.
 FormGI is forming the generalized inverse of G from B-inverse, IUseBI=4.
 Internal  Forces:  Max     0.014400728 RMS     0.005530228
 Search for a local minimum.
 Step number   1 out of a maximum of   57
 All quantities printed in internal units (Hartrees-Bohrs-Radians)
 Mixed Optimization -- RFO/linear search
 Second derivative matrix not updated -- first step.
 ITU=  0
     Eigenvalues ---    0.02054   0.02054   0.02087   0.02089   0.02126
     Eigenvalues ---    0.02141   0.02147   0.02316   0.16000   0.16000
     Eigenvalues ---    0.16000   0.16000   0.16000   0.22000   0.22000
     Eigenvalues ---    0.23194   0.33172   0.33180   0.33764   0.33967
     Eigenvalues ---    0.33968   0.40936   0.44014   0.44506   0.46000
     Eigenvalues ---    0.53625   0.54774
 RFO step:  Lambda=-3.50218371D-03 EMin= 2.05387258D-02
 Linear search not attempted -- first point.
 Iteration  1 RMS(Cart)=  0.02030498 RMS(Int)=  0.00003090
 Iteration  2 RMS(Cart)=  0.00004050 RMS(Int)=  0.00000524
 Iteration  3 RMS(Cart)=  0.00000000 RMS(Int)=  0.00000524
 Variable       Old X    -DE/DX   Delta X   Delta X   Delta X     New X
                                 (Linear)    (Quad)   (Total)
    R1        2.65861  -0.01434   0.00000  -0.03200  -0.03200   2.62661
    R2        2.54585  -0.01233   0.00000  -0.02258  -0.02257   2.52328
    R3        2.08736  -0.01232   0.00000  -0.03674  -0.03674   2.05062
    R4        2.63821  -0.00771   0.00000  -0.01586  -0.01587   2.62235
    R5        2.07384  -0.00952   0.00000  -0.02773  -0.02773   2.04611
    R6        2.63801  -0.00762   0.00000  -0.01566  -0.01566   2.62235
    R7        2.07731  -0.01012   0.00000  -0.02967  -0.02967   2.04764
    R8        2.65877  -0.01440   0.00000  -0.03216  -0.03216   2.62662
    R9        2.07385  -0.00953   0.00000  -0.02776  -0.02776   2.04609
   R10        2.54622  -0.01250   0.00000  -0.02292  -0.02291   2.52331
   R11        2.08750  -0.01237   0.00000  -0.03689  -0.03689   2.05061
    A1        2.15518   0.00098   0.00000   0.00316   0.00316   2.15835
    A2        2.10831  -0.00130   0.00000  -0.00655  -0.00655   2.10176
    A3        2.01970   0.00032   0.00000   0.00339   0.00339   2.02308
    A4        2.06865  -0.00072   0.00000  -0.00156  -0.00157   2.06708
    A5        2.10074  -0.00011   0.00000  -0.00210  -0.00210   2.09864
    A6        2.11379   0.00083   0.00000   0.00366   0.00367   2.11746
    A7        2.07309  -0.00116   0.00000  -0.00207  -0.00209   2.07100
    A8        2.10485   0.00060   0.00000   0.00114   0.00115   2.10599
    A9        2.10525   0.00056   0.00000   0.00093   0.00094   2.10619
   A10        2.06831  -0.00063   0.00000  -0.00121  -0.00122   2.06709
   A11        2.11417   0.00078   0.00000   0.00341   0.00342   2.11758
   A12        2.10071  -0.00014   0.00000  -0.00220  -0.00219   2.09852
   A13        2.15543   0.00093   0.00000   0.00290   0.00291   2.15833
   A14        2.10824  -0.00128   0.00000  -0.00643  -0.00643   2.10181
   A15        2.01951   0.00035   0.00000   0.00353   0.00353   2.02304
   A16        2.04571   0.00060   0.00000  -0.00121  -0.00119   2.04452
    D1        0.00018   0.00000   0.00000  -0.00020  -0.00020  -0.00002
    D2        3.14149   0.00000   0.00000   0.00001   0.00001   3.14150
    D3       -3.14146   0.00000   0.00000  -0.00018  -0.00018   3.14154
    D4       -0.00015   0.00000   0.00000   0.00003   0.00003  -0.00012
    D5       -0.00002   0.00000   0.00000  -0.00010  -0.00010  -0.00012
    D6       -3.14157   0.00000   0.00000  -0.00012  -0.00012   3.14150
    D7       -0.00020   0.00001   0.00000   0.00031   0.00031   0.00011
    D8       -3.14059  -0.00002   0.00000  -0.00079  -0.00079  -3.14138
    D9       -3.14151   0.00000   0.00000   0.00010   0.00010  -3.14141
   D10        0.00128  -0.00002   0.00000  -0.00100  -0.00100   0.00028
   D11        0.00007   0.00000   0.00000  -0.00014  -0.00014  -0.00007
   D12       -3.14149  -0.00001   0.00000  -0.00025  -0.00025   3.14144
   D13        3.14047   0.00002   0.00000   0.00096   0.00096   3.14143
   D14       -0.00110   0.00002   0.00000   0.00086   0.00086  -0.00025
   D15        0.00009   0.00000   0.00000  -0.00017  -0.00017  -0.00008
   D16        3.14148   0.00000   0.00000   0.00018   0.00018  -3.14153
   D17       -3.14153   0.00000   0.00000  -0.00006  -0.00006  -3.14159
   D18       -0.00014   0.00001   0.00000   0.00028   0.00028   0.00014
   D19       -0.00012   0.00001   0.00000   0.00029   0.00029   0.00017
   D20       -3.14151   0.00000   0.00000  -0.00005  -0.00005  -3.14156
         Item               Value     Threshold  Converged?
 Maximum Force            0.014401     0.000450     NO 
 RMS     Force            0.005530     0.000300     NO 
 Maximum Displacement     0.048387     0.001800     NO 
 RMS     Displacement     0.020301     0.001200     NO 
 Predicted change in Energy=-1.766729D-03
 GradGradGradGradGradGradGradGradGradGradGradGradGradGradGradGradGradGrad

                          Input orientation:                          
 ---------------------------------------------------------------------
 Center     Atomic      Atomic             Coordinates (Angstroms)
 Number     Number       Type             X           Y           Z
 ---------------------------------------------------------------------
      1          6           0       -3.367145    0.185294   -0.000002
      2          6           0       -1.977206    0.181754   -0.000041
      3          6           0       -1.313334    1.400337   -0.000305
      4          6           0       -2.064227    2.567315   -0.000379
      5          6           0       -3.450217    2.462519   -0.000268
      6          7           0       -4.104478    1.298515   -0.000181
      7          1           0       -0.230486    1.439731   -0.000541
      8          1           0       -3.919000   -0.749045    0.000157
      9          1           0       -1.434236   -0.755015    0.000198
     10          1           0       -1.591075    3.541205   -0.000445
     11          1           0       -4.068722    3.354132   -0.000382
 ---------------------------------------------------------------------
                    Distance matrix (angstroms):
                    1          2          3          4          5
     1  C    0.000000
     2  C    1.389944   0.000000
     3  C    2.386309   1.387685   0.000000
     4  C    2.715073   2.387147   1.387688   0.000000
     5  C    2.278740   2.715078   2.386315   1.389946   0.000000
     6  N    1.335261   2.402590   2.793000   2.402598   1.335276
     7  H    3.378201   2.152565   1.083564   2.152685   3.378278
     8  H    1.085141   2.153357   3.377771   3.799792   3.245597
     9  H    2.149492   1.082752   2.158740   3.381533   3.796934
    10  H    3.796915   3.381568   2.158808   1.082744   2.149412
    11  H    3.245573   3.799792   3.377792   2.153388   1.085137
                    6          7          8          9         10
     6  N    0.000000
     7  H    3.876564   0.000000
     8  H    2.055943   4.289040   0.000000
     9  H    3.368557   2.503182   2.484771   0.000000
    10  H    3.368508   2.503476   4.881134   4.299081   0.000000
    11  H    2.055927   4.289171   4.105907   4.881148   2.484700
                   11
    11  H    0.000000
 Stoichiometry    C5H5N
 Framework group  C1[X(C5H5N)]
 Deg. of freedom    27
 Full point group                 C1      NOp   1
 Largest Abelian subgroup         C1      NOp   1
 Largest concise Abelian subgroup C1      NOp   1
                         Standard orientation:                         
 ---------------------------------------------------------------------
 Center     Atomic      Atomic             Coordinates (Angstroms)
 Number     Number       Type             X           Y           Z
 ---------------------------------------------------------------------
      1          6           0       -1.139039   -0.719015   -0.000195
      2          6           0       -1.193875    0.669846   -0.000155
      3          6           0       -0.000623    1.378240    0.000108
      4          6           0        1.193273    0.670928    0.000183
      5          6           0        1.139701   -0.717986    0.000072
      6          7           0        0.000636   -1.414760   -0.000015
      7          1           0       -0.001221    2.461804    0.000345
      8          1           0       -2.052374   -1.304977   -0.000353
      9          1           0       -2.150045    1.177874   -0.000394
     10          1           0        2.149036    1.179701    0.000249
     11          1           0        2.053533   -1.303163    0.000186
 ---------------------------------------------------------------------
 Rotational constants (GHZ):           6.0775297           5.8578610           2.9828369
 Standard basis: 6-311+G(2d,p) (5D, 7F)
 There are   204 symmetry adapted cartesian basis functions of A   symmetry.
 There are   192 symmetry adapted basis functions of A   symmetry.
   192 basis functions,   292 primitive gaussians,   204 cartesian basis functions
    21 alpha electrons       21 beta electrons
       nuclear repulsion energy       206.6584415608 Hartrees.
 NAtoms=   11 NActive=   11 NUniq=   11 SFac= 1.00D+00 NAtFMM=   60 NAOKFM=F Big=F
 Integral buffers will be    131072 words long.
 Raffenetti 2 integral format.
 Two-electron integral symmetry is turned on.
 One-electron integrals computed using PRISM.
 NBasis=   192 RedAO= T EigKep=  1.89D-05  NBF=   192
 NBsUse=   192 1.00D-06 EigRej= -1.00D+00 NBFU=   192
 Initial guess from the checkpoint file:  "Pyridine.chk"
 B after Tr=     0.000000    0.000000    0.000000
         Rot=    0.999994   -0.000033    0.000000   -0.003495 Ang=  -0.40 deg.
 ExpMin= 4.38D-02 ExpMax= 6.29D+03 ExpMxC= 9.49D+02 IAcc=3 IRadAn=         5 AccDes= 0.00D+00
 Harris functional with IExCor=  402 and IRadAn=       5 diagonalized for initial guess.
 HarFok:  IExCor=  402 AccDes= 0.00D+00 IRadAn=         5 IDoV= 1 UseB2=F ITyADJ=14
 ICtDFT=  3500011 ScaDFX=  1.000000  1.000000  1.000000  1.000000
 FoFCou: FMM=F IPFlag=           0 FMFlag=      100000 FMFlg1=           0
         NFxFlg=           0 DoJE=T BraDBF=F KetDBF=T FulRan=T
         wScrn=  0.000000 ICntrl=       500 IOpCl=  0 I1Cent=   200000004 NGrid=           0
         NMat0=    1 NMatS0=      1 NMatT0=    0 NMatD0=    1 NMtDS0=    0 NMtDT0=    0
 Petite list used in FoFCou.
 Keep R1 ints in memory in canonical form, NReq=179928303.
 Requested convergence on RMS density matrix=1.00D-08 within  32 cycles.
 Requested convergence on MAX density matrix=1.00D-06.
 Requested convergence on             energy=1.00D-06.
 No special actions if energy rises.
 SCF Done:  E(RB3LYP) =  -248.357930135     A.U. after   10 cycles
            NFock= 10  Conv=0.34D-08     -V/T= 2.0041
 QCSCF skips out because SCF is already converged.
 Calling FoFJK, ICntrl=      2127 FMM=F ISym2X=0 I1Cent= 0 IOpClX= 0 NMat=1 NMatS=1 NMatT=0.
 ***** Axes restored to original set *****
 -------------------------------------------------------------------
 Center     Atomic                   Forces (Hartrees/Bohr)
 Number     Number              X              Y              Z
 -------------------------------------------------------------------
      1        6          -0.001768382   -0.000236748   -0.000000465
      2        6           0.000046441   -0.000609945    0.000003867
      3        6           0.001864737    0.000061727   -0.000005577
      4        6          -0.000007665    0.000619529    0.000006647
      5        6          -0.001783568    0.000083022   -0.000012700
      6        7           0.001302163    0.000054036    0.000008512
      7        1           0.000187018    0.000018481    0.000008238
      8        1          -0.000017020   -0.000642289   -0.000000119
      9        1           0.000116879   -0.000173575   -0.000006519
     10        1           0.000119104    0.000181363   -0.000005019
     11        1          -0.000059708    0.000644400    0.000003134
 -------------------------------------------------------------------
 Cartesian Forces:  Max     0.001864737 RMS     0.000634063

 GradGradGradGradGradGradGradGradGradGradGradGradGradGradGradGradGradGrad
 Berny optimization.
 Using GEDIIS/GDIIS optimizer.
 FormGI is forming the generalized inverse of G from B-inverse, IUseBI=4.
 Internal  Forces:  Max     0.001406466 RMS     0.000464317
 Search for a local minimum.
 Step number   2 out of a maximum of   57
 All quantities printed in internal units (Hartrees-Bohrs-Radians)
 Mixed Optimization -- En-DIIS/RFO-DIIS
 Update second derivatives using D2CorX and points    1    2
 DE= -1.69D-03 DEPred=-1.77D-03 R= 9.55D-01
 TightC=F SS=  1.41D+00  RLast= 9.43D-02 DXNew= 5.0454D-01 2.8298D-01
 Trust test= 9.55D-01 RLast= 9.43D-02 DXMaxT set to 3.00D-01
 ITU=  1  0
 Use linear search instead of GDIIS.
     Eigenvalues ---    0.02054   0.02055   0.02087   0.02089   0.02127
     Eigenvalues ---    0.02141   0.02148   0.02316   0.15933   0.16000
     Eigenvalues ---    0.16000   0.16000   0.16005   0.21991   0.22000
     Eigenvalues ---    0.23218   0.33176   0.33464   0.33765   0.33968
     Eigenvalues ---    0.33992   0.40883   0.43775   0.45998   0.46826
     Eigenvalues ---    0.53999   0.54765
 RFO step:  Lambda=-1.77804802D-05 EMin= 2.05415627D-02
 Quartic linear search produced a step of -0.04768.
 Iteration  1 RMS(Cart)=  0.00151971 RMS(Int)=  0.00000106
 Iteration  2 RMS(Cart)=  0.00000133 RMS(Int)=  0.00000009
 Iteration  3 RMS(Cart)=  0.00000000 RMS(Int)=  0.00000009
 Variable       Old X    -DE/DX   Delta X   Delta X   Delta X     New X
                                 (Linear)    (Quad)   (Total)
    R1        2.62661   0.00116   0.00153   0.00071   0.00224   2.62885
    R2        2.52328   0.00015   0.00108  -0.00103   0.00004   2.52332
    R3        2.05062   0.00056   0.00175  -0.00043   0.00132   2.05194
    R4        2.62235   0.00141   0.00076   0.00211   0.00286   2.62521
    R5        2.04611   0.00021   0.00132  -0.00096   0.00036   2.04647
    R6        2.62235   0.00140   0.00075   0.00210   0.00284   2.62519
    R7        2.04764   0.00019   0.00141  -0.00112   0.00029   2.04793
    R8        2.62662   0.00115   0.00153   0.00070   0.00223   2.62885
    R9        2.04609   0.00022   0.00132  -0.00094   0.00038   2.04647
   R10        2.52331   0.00015   0.00109  -0.00106   0.00003   2.52334
   R11        2.05061   0.00056   0.00176  -0.00044   0.00132   2.05193
    A1        2.15835  -0.00052  -0.00015  -0.00213  -0.00228   2.15607
    A2        2.10176  -0.00006   0.00031  -0.00113  -0.00082   2.10093
    A3        2.02308   0.00058  -0.00016   0.00326   0.00310   2.02618
    A4        2.06708   0.00020   0.00007   0.00103   0.00111   2.06819
    A5        2.09864  -0.00008   0.00010  -0.00060  -0.00050   2.09814
    A6        2.11746  -0.00011  -0.00017  -0.00043  -0.00061   2.11685
    A7        2.07100  -0.00042   0.00010  -0.00150  -0.00141   2.06960
    A8        2.10599   0.00022  -0.00005   0.00083   0.00077   2.10677
    A9        2.10619   0.00020  -0.00004   0.00068   0.00063   2.10682
   A10        2.06709   0.00019   0.00006   0.00104   0.00110   2.06819
   A11        2.11758  -0.00013  -0.00016  -0.00052  -0.00069   2.11689
   A12        2.09852  -0.00007   0.00010  -0.00052  -0.00041   2.09811
   A13        2.15833  -0.00051  -0.00014  -0.00212  -0.00225   2.15608
   A14        2.10181  -0.00007   0.00031  -0.00118  -0.00087   2.10094
   A15        2.02304   0.00058  -0.00017   0.00329   0.00313   2.02617
   A16        2.04452   0.00107   0.00006   0.00367   0.00373   2.04825
    D1       -0.00002   0.00000   0.00001   0.00002   0.00003   0.00001
    D2        3.14150   0.00000   0.00000   0.00008   0.00008   3.14158
    D3        3.14154   0.00000   0.00001   0.00002   0.00003   3.14158
    D4       -0.00012   0.00000   0.00000   0.00008   0.00008  -0.00004
    D5       -0.00012   0.00000   0.00000   0.00010   0.00011  -0.00001
    D6        3.14150   0.00000   0.00001   0.00011   0.00011  -3.14157
    D7        0.00011   0.00000  -0.00001  -0.00010  -0.00011   0.00000
    D8       -3.14138   0.00000   0.00004  -0.00025  -0.00021   3.14159
    D9       -3.14141   0.00000   0.00000  -0.00015  -0.00016  -3.14156
   D10        0.00028   0.00000   0.00005  -0.00031  -0.00026   0.00002
   D11       -0.00007   0.00000   0.00001   0.00004   0.00005  -0.00002
   D12        3.14144   0.00000   0.00001   0.00010   0.00011   3.14155
   D13        3.14143   0.00000  -0.00005   0.00020   0.00015   3.14158
   D14       -0.00025   0.00000  -0.00004   0.00025   0.00021  -0.00004
   D15       -0.00008   0.00000   0.00001   0.00009   0.00010   0.00002
   D16       -3.14153   0.00000  -0.00001  -0.00008  -0.00009   3.14157
   D17       -3.14159   0.00000   0.00000   0.00004   0.00004  -3.14155
   D18        0.00014   0.00000  -0.00001  -0.00013  -0.00015   0.00000
   D19        0.00017   0.00000  -0.00001  -0.00016  -0.00018  -0.00001
   D20       -3.14156   0.00000   0.00000   0.00000   0.00001  -3.14155
         Item               Value     Threshold  Converged?
 Maximum Force            0.001406     0.000450     NO 
 RMS     Force            0.000464     0.000300     NO 
 Maximum Displacement     0.005014     0.001800     NO 
 RMS     Displacement     0.001519     0.001200     NO 
 Predicted change in Energy=-1.336927D-05
 GradGradGradGradGradGradGradGradGradGradGradGradGradGradGradGradGradGrad

                          Input orientation:                          
 ---------------------------------------------------------------------
 Center     Atomic      Atomic             Coordinates (Angstroms)
 Number     Number       Type             X           Y           Z
 ---------------------------------------------------------------------
      1          6           0       -3.368398    0.183920    0.000025
      2          6           0       -1.977274    0.180948   -0.000068
      3          6           0       -1.311824    1.400396   -0.000288
      4          6           0       -2.064356    2.568108   -0.000403
      5          6           0       -3.451564    2.463769   -0.000313
      6          7           0       -4.103664    1.298535   -0.000099
      7          1           0       -0.228825    1.439877   -0.000365
      8          1           0       -3.919455   -0.751698    0.000181
      9          1           0       -1.434293   -0.756037    0.000054
     10          1           0       -1.591133    3.542188   -0.000537
     11          1           0       -4.069340    3.356737   -0.000375
 ---------------------------------------------------------------------
                    Distance matrix (angstroms):
                    1          2          3          4          5
     1  C    0.000000
     2  C    1.391128   0.000000
     3  C    2.389416   1.389200   0.000000
     4  C    2.717513   2.388748   1.389192   0.000000
     5  C    2.281365   2.717499   2.389403   1.391126   0.000000
     6  N    1.335284   2.402194   2.793697   2.402206   1.335292
     7  H    3.381471   2.154524   1.083719   2.154548   3.381479
     8  H    1.085838   2.154506   3.381012   3.802960   3.249330
     9  H    2.150415   1.082945   2.159908   3.383330   3.799544
    10  H    3.799557   3.383347   2.159927   1.082946   2.150393
    11  H    3.249321   3.802943   3.381000   2.154506   1.085836
                    6          7          8          9         10
     6  N    0.000000
     7  H    3.877416   0.000000
     8  H    2.058492   4.292290   0.000000
     9  H    3.368503   2.505033   2.485167   0.000000
    10  H    3.368500   2.505113   4.884520   4.301086   0.000000
    11  H    2.058488   4.292307   4.111168   4.884505   2.485136
                   11
    11  H    0.000000
 Stoichiometry    C5H5N
 Framework group  C1[X(C5H5N)]
 Deg. of freedom    27
 Full point group                 C1      NOp   1
 Largest Abelian subgroup         C1      NOp   1
 Largest concise Abelian subgroup C1      NOp   1
                         Standard orientation:                         
 ---------------------------------------------------------------------
 Center     Atomic      Atomic             Coordinates (Angstroms)
 Number     Number       Type             X           Y           Z
 ---------------------------------------------------------------------
      1          6           0       -1.140760   -0.719648   -0.000217
      2          6           0       -1.194301    0.670449   -0.000123
      3          6           0        0.000150    1.379788    0.000097
      4          6           0        1.194447    0.670203    0.000212
      5          6           0        1.140605   -0.719881    0.000122
      6          7           0       -0.000153   -1.413909   -0.000092
      7          1           0        0.000236    2.463507    0.000174
      8          1           0       -2.055727   -1.304353   -0.000373
      9          1           0       -2.150406    1.179009   -0.000245
     10          1           0        2.150680    1.178523    0.000346
     11          1           0        2.055441   -1.304787    0.000184
 ---------------------------------------------------------------------
 Rotational constants (GHZ):           6.0667213           5.8531029           2.9789990
 Standard basis: 6-311+G(2d,p) (5D, 7F)
 There are   204 symmetry adapted cartesian basis functions of A   symmetry.
 There are   192 symmetry adapted basis functions of A   symmetry.
   192 basis functions,   292 primitive gaussians,   204 cartesian basis functions
    21 alpha electrons       21 beta electrons
       nuclear repulsion energy       206.5304220272 Hartrees.
 NAtoms=   11 NActive=   11 NUniq=   11 SFac= 1.00D+00 NAtFMM=   60 NAOKFM=F Big=F
 Integral buffers will be    131072 words long.
 Raffenetti 2 integral format.
 Two-electron integral symmetry is turned on.
 One-electron integrals computed using PRISM.
 NBasis=   192 RedAO= T EigKep=  1.90D-05  NBF=   192
 NBsUse=   192 1.00D-06 EigRej= -1.00D+00 NBFU=   192
 Initial guess from the checkpoint file:  "Pyridine.chk"
 B after Tr=     0.000000    0.000000    0.000000
         Rot=    1.000000   -0.000007    0.000004    0.000278 Ang=  -0.03 deg.
 Keep R1 ints in memory in canonical form, NReq=179928303.
 Requested convergence on RMS density matrix=1.00D-08 within  32 cycles.
 Requested convergence on MAX density matrix=1.00D-06.
 Requested convergence on             energy=1.00D-06.
 No special actions if energy rises.
 SCF Done:  E(RB3LYP) =  -248.357943830     A.U. after    8 cycles
            NFock=  8  Conv=0.68D-08     -V/T= 2.0042
 QCSCF skips out because SCF is already converged.
 Calling FoFJK, ICntrl=      2127 FMM=F ISym2X=0 I1Cent= 0 IOpClX= 0 NMat=1 NMatS=1 NMatT=0.
 ***** Axes restored to original set *****
 -------------------------------------------------------------------
 Center     Atomic                   Forces (Hartrees/Bohr)
 Number     Number              X              Y              Z
 -------------------------------------------------------------------
      1        6          -0.000370118    0.000407142   -0.000003227
      2        6           0.000031228    0.000084935    0.000001544
      3        6           0.000092689   -0.000003181    0.000000123
      4        6           0.000032332   -0.000076350    0.000000144
      5        6          -0.000344993   -0.000439468    0.000004438
      6        7           0.000336959    0.000016810   -0.000000696
      7        1           0.000013238    0.000003138    0.000000536
      8        1           0.000022592   -0.000052483    0.000001311
      9        1           0.000084566   -0.000067714   -0.000001058
     10        1           0.000082788    0.000071550   -0.000001559
     11        1           0.000018719    0.000055621   -0.000001557
 -------------------------------------------------------------------
 Cartesian Forces:  Max     0.000439468 RMS     0.000154040

 GradGradGradGradGradGradGradGradGradGradGradGradGradGradGradGradGradGrad
 Berny optimization.
 Using GEDIIS/GDIIS optimizer.
 FormGI is forming the generalized inverse of G from B-inverse, IUseBI=4.
 Internal  Forces:  Max     0.000345050 RMS     0.000088488
 Search for a local minimum.
 Step number   3 out of a maximum of   57
 All quantities printed in internal units (Hartrees-Bohrs-Radians)
 Mixed Optimization -- En-DIIS/RFO-DIIS
 Swapping is turned off.
 Update second derivatives using D2CorX and points    1    2    3
 DE= -1.37D-05 DEPred=-1.34D-05 R= 1.02D+00
 TightC=F SS=  1.41D+00  RLast= 9.06D-03 DXNew= 5.0454D-01 2.7180D-02
 Trust test= 1.02D+00 RLast= 9.06D-03 DXMaxT set to 3.00D-01
 ITU=  1  1  0
     Eigenvalues ---    0.02054   0.02055   0.02087   0.02089   0.02127
     Eigenvalues ---    0.02141   0.02148   0.02316   0.15243   0.16000
     Eigenvalues ---    0.16000   0.16000   0.16042   0.21533   0.22000
     Eigenvalues ---    0.24110   0.33176   0.33463   0.33789   0.33913
     Eigenvalues ---    0.33968   0.40889   0.41784   0.44156   0.45997
     Eigenvalues ---    0.54770   0.59740
 En-DIIS/RFO-DIIS/Sim-DIIS IScMMF=       -3 using points:     3    2
 RFO step:  Lambda=-9.19717257D-07.
 DidBck=F Rises=F RFO-DIIS coefs:    1.07816   -0.07816
 Iteration  1 RMS(Cart)=  0.00021439 RMS(Int)=  0.00000003
 Iteration  2 RMS(Cart)=  0.00000004 RMS(Int)=  0.00000001
 Variable       Old X    -DE/DX   Delta X   Delta X   Delta X     New X
                                 (Linear)    (Quad)   (Total)
    R1        2.62885   0.00017   0.00017   0.00028   0.00046   2.62931
    R2        2.52332  -0.00034   0.00000  -0.00068  -0.00067   2.52265
    R3        2.05194   0.00003   0.00010   0.00003   0.00013   2.05206
    R4        2.62521  -0.00005   0.00022  -0.00020   0.00002   2.62523
    R5        2.04647   0.00010   0.00003   0.00028   0.00030   2.04677
    R6        2.62519  -0.00004   0.00022  -0.00019   0.00003   2.62522
    R7        2.04793   0.00001   0.00002   0.00001   0.00003   2.04796
    R8        2.62885   0.00017   0.00017   0.00028   0.00046   2.62931
    R9        2.04647   0.00010   0.00003   0.00027   0.00030   2.04677
   R10        2.52334  -0.00035   0.00000  -0.00069  -0.00069   2.52265
   R11        2.05193   0.00004   0.00010   0.00003   0.00013   2.05206
    A1        2.15607   0.00006  -0.00018   0.00030   0.00012   2.15619
    A2        2.10093  -0.00008  -0.00006  -0.00038  -0.00044   2.10049
    A3        2.02618   0.00002   0.00024   0.00008   0.00032   2.02650
    A4        2.06819   0.00000   0.00009   0.00004   0.00013   2.06832
    A5        2.09814   0.00004  -0.00004   0.00024   0.00020   2.09834
    A6        2.11685  -0.00004  -0.00005  -0.00028  -0.00032   2.11653
    A7        2.06960  -0.00012  -0.00011  -0.00036  -0.00047   2.06912
    A8        2.10677   0.00006   0.00006   0.00020   0.00026   2.10703
    A9        2.10682   0.00006   0.00005   0.00017   0.00022   2.10704
   A10        2.06819   0.00000   0.00009   0.00005   0.00013   2.06832
   A11        2.11689  -0.00005  -0.00005  -0.00030  -0.00036   2.11654
   A12        2.09811   0.00004  -0.00003   0.00026   0.00022   2.09833
   A13        2.15608   0.00005  -0.00018   0.00029   0.00012   2.15619
   A14        2.10094  -0.00008  -0.00007  -0.00038  -0.00044   2.10049
   A15        2.02617   0.00002   0.00024   0.00009   0.00033   2.02650
   A16        2.04825   0.00001   0.00029  -0.00031  -0.00002   2.04823
    D1        0.00001   0.00000   0.00000  -0.00003  -0.00003  -0.00001
    D2        3.14158   0.00000   0.00001   0.00000   0.00000   3.14158
    D3        3.14158   0.00000   0.00000   0.00002   0.00003  -3.14158
    D4       -0.00004   0.00000   0.00001   0.00005   0.00006   0.00001
    D5       -0.00001   0.00000   0.00001   0.00001   0.00002   0.00001
    D6       -3.14157   0.00000   0.00001  -0.00004  -0.00003   3.14158
    D7        0.00000   0.00000  -0.00001   0.00001   0.00000   0.00000
    D8        3.14159   0.00000  -0.00002   0.00003   0.00001  -3.14159
    D9       -3.14156   0.00000  -0.00001  -0.00002  -0.00003   3.14159
   D10        0.00002   0.00000  -0.00002   0.00000  -0.00002   0.00000
   D11       -0.00002   0.00000   0.00000   0.00003   0.00003   0.00002
   D12        3.14155   0.00000   0.00001   0.00005   0.00006  -3.14158
   D13        3.14158   0.00000   0.00001   0.00001   0.00002  -3.14158
   D14       -0.00004   0.00000   0.00002   0.00003   0.00005   0.00001
   D15        0.00002   0.00000   0.00001  -0.00005  -0.00004  -0.00002
   D16        3.14157   0.00000  -0.00001   0.00005   0.00004  -3.14158
   D17       -3.14155   0.00000   0.00000  -0.00007  -0.00007   3.14157
   D18        0.00000   0.00000  -0.00001   0.00003   0.00002   0.00002
   D19       -0.00001   0.00000  -0.00001   0.00003   0.00002   0.00001
   D20       -3.14155   0.00000   0.00000  -0.00006  -0.00006   3.14157
         Item               Value     Threshold  Converged?
 Maximum Force            0.000345     0.000450     YES
 RMS     Force            0.000088     0.000300     YES
 Maximum Displacement     0.000616     0.001800     YES
 RMS     Displacement     0.000214     0.001200     YES
 Predicted change in Energy=-4.598559D-07
 Optimization completed.
    -- Stationary point found.
                           ----------------------------
                           !   Optimized Parameters   !
                           ! (Angstroms and Degrees)  !
 --------------------------                            --------------------------
 ! Name  Definition              Value          Derivative Info.                !
 --------------------------------------------------------------------------------
 ! R1    R(1,2)                  1.3911         -DE/DX =    0.0002              !
 ! R2    R(1,6)                  1.3353         -DE/DX =   -0.0003              !
 ! R3    R(1,8)                  1.0858         -DE/DX =    0.0                 !
 ! R4    R(2,3)                  1.3892         -DE/DX =    0.0                 !
 ! R5    R(2,9)                  1.0829         -DE/DX =    0.0001              !
 ! R6    R(3,4)                  1.3892         -DE/DX =    0.0                 !
 ! R7    R(3,7)                  1.0837         -DE/DX =    0.0                 !
 ! R8    R(4,5)                  1.3911         -DE/DX =    0.0002              !
 ! R9    R(4,10)                 1.0829         -DE/DX =    0.0001              !
 ! R10   R(5,6)                  1.3353         -DE/DX =   -0.0003              !
 ! R11   R(5,11)                 1.0858         -DE/DX =    0.0                 !
 ! A1    A(2,1,6)              123.5336         -DE/DX =    0.0001              !
 ! A2    A(2,1,8)              120.3747         -DE/DX =   -0.0001              !
 ! A3    A(6,1,8)              116.0917         -DE/DX =    0.0                 !
 ! A4    A(1,2,3)              118.4988         -DE/DX =    0.0                 !
 ! A5    A(1,2,9)              120.2146         -DE/DX =    0.0                 !
 ! A6    A(3,2,9)              121.2866         -DE/DX =    0.0                 !
 ! A7    A(2,3,4)              118.5791         -DE/DX =   -0.0001              !
 ! A8    A(2,3,7)              120.709          -DE/DX =    0.0001              !
 ! A9    A(4,3,7)              120.7119         -DE/DX =    0.0001              !
 ! A10   A(3,4,5)              118.4983         -DE/DX =    0.0                 !
 ! A11   A(3,4,10)             121.2891         -DE/DX =    0.0                 !
 ! A12   A(5,4,10)             120.2126         -DE/DX =    0.0                 !
 ! A13   A(4,5,6)              123.5341         -DE/DX =    0.0001              !
 ! A14   A(4,5,11)             120.3749         -DE/DX =   -0.0001              !
 ! A15   A(6,5,11)             116.0909         -DE/DX =    0.0                 !
 ! A16   A(1,6,5)              117.3561         -DE/DX =    0.0                 !
 ! D1    D(6,1,2,3)              0.0008         -DE/DX =    0.0                 !
 ! D2    D(6,1,2,9)            179.9992         -DE/DX =    0.0                 !
 ! D3    D(8,1,2,3)           -180.001          -DE/DX =    0.0                 !
 ! D4    D(8,1,2,9)             -0.0025         -DE/DX =    0.0                 !
 ! D5    D(2,1,6,5)             -0.0006         -DE/DX =    0.0                 !
 ! D6    D(8,1,6,5)            180.001          -DE/DX =    0.0                 !
 ! D7    D(1,2,3,4)              0.0001         -DE/DX =    0.0                 !
 ! D8    D(1,2,3,7)           -180.0001         -DE/DX =    0.0                 !
 ! D9    D(9,2,3,4)            180.0016         -DE/DX =    0.0                 !
 ! D10   D(9,2,3,7)              0.0014         -DE/DX =    0.0                 !
 ! D11   D(2,3,4,5)             -0.001          -DE/DX =    0.0                 !
 ! D12   D(2,3,4,10)          -180.0024         -DE/DX =    0.0                 !
 ! D13   D(7,3,4,5)           -180.0008         -DE/DX =    0.0                 !
 ! D14   D(7,3,4,10)            -0.0022         -DE/DX =    0.0                 !
 ! D15   D(3,4,5,6)              0.0012         -DE/DX =    0.0                 !
 ! D16   D(3,4,5,11)          -180.0015         -DE/DX =    0.0                 !
 ! D17   D(10,4,5,6)           180.0026         -DE/DX =    0.0                 !
 ! D18   D(10,4,5,11)           -0.0001         -DE/DX =    0.0                 !
 ! D19   D(4,5,6,1)             -0.0004         -DE/DX =    0.0                 !
 ! D20   D(11,5,6,1)           180.0022         -DE/DX =    0.0                 !
 --------------------------------------------------------------------------------
 GradGradGradGradGradGradGradGradGradGradGradGradGradGradGradGradGradGrad

                          Input orientation:                          
 ---------------------------------------------------------------------
 Center     Atomic      Atomic             Coordinates (Angstroms)
 Number     Number       Type             X           Y           Z
 ---------------------------------------------------------------------
      1          6           0       -3.368398    0.183920    0.000025
      2          6           0       -1.977274    0.180948   -0.000068
      3          6           0       -1.311824    1.400396   -0.000288
      4          6           0       -2.064356    2.568108   -0.000403
      5          6           0       -3.451564    2.463769   -0.000313
      6          7           0       -4.103664    1.298535   -0.000099
      7          1           0       -0.228825    1.439877   -0.000365
      8          1           0       -3.919455   -0.751698    0.000181
      9          1           0       -1.434293   -0.756037    0.000054
     10          1           0       -1.591133    3.542188   -0.000537
     11          1           0       -4.069340    3.356737   -0.000375
 ---------------------------------------------------------------------
                    Distance matrix (angstroms):
                    1          2          3          4          5
     1  C    0.000000
     2  C    1.391128   0.000000
     3  C    2.389416   1.389200   0.000000
     4  C    2.717513   2.388748   1.389192   0.000000
     5  C    2.281365   2.717499   2.389403   1.391126   0.000000
     6  N    1.335284   2.402194   2.793697   2.402206   1.335292
     7  H    3.381471   2.154524   1.083719   2.154548   3.381479
     8  H    1.085838   2.154506   3.381012   3.802960   3.249330
     9  H    2.150415   1.082945   2.159908   3.383330   3.799544
    10  H    3.799557   3.383347   2.159927   1.082946   2.150393
    11  H    3.249321   3.802943   3.381000   2.154506   1.085836
                    6          7          8          9         10
     6  N    0.000000
     7  H    3.877416   0.000000
     8  H    2.058492   4.292290   0.000000
     9  H    3.368503   2.505033   2.485167   0.000000
    10  H    3.368500   2.505113   4.884520   4.301086   0.000000
    11  H    2.058488   4.292307   4.111168   4.884505   2.485136
                   11
    11  H    0.000000
 Stoichiometry    C5H5N
 Framework group  C1[X(C5H5N)]
 Deg. of freedom    27
 Full point group                 C1      NOp   1
 Largest Abelian subgroup         C1      NOp   1
 Largest concise Abelian subgroup C1      NOp   1
                         Standard orientation:                         
 ---------------------------------------------------------------------
 Center     Atomic      Atomic             Coordinates (Angstroms)
 Number     Number       Type             X           Y           Z
 ---------------------------------------------------------------------
      1          6           0       -1.140760   -0.719648   -0.000217
      2          6           0       -1.194301    0.670449   -0.000123
      3          6           0        0.000150    1.379788    0.000097
      4          6           0        1.194447    0.670203    0.000212
      5          6           0        1.140605   -0.719881    0.000122
      6          7           0       -0.000153   -1.413909   -0.000092
      7          1           0        0.000236    2.463507    0.000174
      8          1           0       -2.055727   -1.304353   -0.000373
      9          1           0       -2.150406    1.179009   -0.000245
     10          1           0        2.150680    1.178523    0.000346
     11          1           0        2.055441   -1.304787    0.000184
 ---------------------------------------------------------------------
 Rotational constants (GHZ):           6.0667213           5.8531029           2.9789990

 **********************************************************************

            Population analysis using the SCF Density.

 **********************************************************************

 Orbital symmetries:
       Occupied  (A) (A) (A) (A) (A) (A) (A) (A) (A) (A) (A) (A)
                 (A) (A) (A) (A) (A) (A) (A) (A) (A)
       Virtual   (A) (A) (A) (A) (A) (A) (A) (A) (A) (A) (A) (A)
                 (A) (A) (A) (A) (A) (A) (A) (A) (A) (A) (A) (A)
                 (A) (A) (A) (A) (A) (A) (A) (A) (A) (A) (A) (A)
                 (A) (A) (A) (A) (A) (A) (A) (A) (A) (A) (A) (A)
                 (A) (A) (A) (A) (A) (A) (A) (A) (A) (A) (A) (A)
                 (A) (A) (A) (A) (A) (A) (A) (A) (A) (A) (A) (A)
                 (A) (A) (A) (A) (A) (A) (A) (A) (A) (A) (A) (A)
                 (A) (A) (A) (A) (A) (A) (A) (A) (A) (A) (A) (A)
                 (A) (A) (A) (A) (A) (A) (A) (A) (A) (A) (A) (A)
                 (A) (A) (A) (A) (A) (A) (A) (A) (A) (A) (A) (A)
                 (A) (A) (A) (A) (A) (A) (A) (A) (A) (A) (A) (A)
                 (A) (A) (A) (A) (A) (A) (A) (A) (A) (A) (A) (A)
                 (A) (A) (A) (A) (A) (A) (A) (A) (A) (A) (A) (A)
                 (A) (A) (A) (A) (A) (A) (A) (A) (A) (A) (A) (A)
                 (A) (A) (A)
 The electronic state is 1-A.
 Alpha  occ. eigenvalues --  -14.31488 -10.21169 -10.21168 -10.19835 -10.18840
 Alpha  occ. eigenvalues --  -10.18837  -0.95116  -0.81448  -0.77093  -0.63912
 Alpha  occ. eigenvalues --   -0.63742  -0.53857  -0.49158  -0.47848  -0.43853
 Alpha  occ. eigenvalues --   -0.41375  -0.40774  -0.37416  -0.29857  -0.27380
 Alpha  occ. eigenvalues --   -0.26560
 Alpha virt. eigenvalues --   -0.04078  -0.02745   0.00040   0.01956   0.02719
 Alpha virt. eigenvalues --    0.04649   0.05068   0.05401   0.06189   0.08499
 Alpha virt. eigenvalues --    0.08520   0.09423   0.09720   0.11775   0.13587
 Alpha virt. eigenvalues --    0.13880   0.13892   0.14472   0.14917   0.15691
 Alpha virt. eigenvalues --    0.16582   0.19427   0.19939   0.20165   0.20721
 Alpha virt. eigenvalues --    0.20893   0.22394   0.23181   0.24367   0.24930
 Alpha virt. eigenvalues --    0.27508   0.29648   0.30498   0.31568   0.31637
 Alpha virt. eigenvalues --    0.32600   0.42711   0.45313   0.47530   0.47944
 Alpha virt. eigenvalues --    0.50274   0.50822   0.52204   0.52611   0.54412
 Alpha virt. eigenvalues --    0.55861   0.56500   0.60007   0.60947   0.61227
 Alpha virt. eigenvalues --    0.61887   0.62333   0.63339   0.64985   0.68448
 Alpha virt. eigenvalues --    0.72364   0.73083   0.75784   0.76918   0.78168
 Alpha virt. eigenvalues --    0.78254   0.80175   0.80348   0.80892   0.82272
 Alpha virt. eigenvalues --    0.84615   0.85389   0.87193   0.91454   0.91681
 Alpha virt. eigenvalues --    0.92693   0.99071   1.04609   1.12947   1.13789
 Alpha virt. eigenvalues --    1.15897   1.17549   1.25040   1.27872   1.31594
 Alpha virt. eigenvalues --    1.31621   1.31653   1.34044   1.35863   1.40632
 Alpha virt. eigenvalues --    1.40642   1.46027   1.47103   1.49002   1.49411
 Alpha virt. eigenvalues --    1.52346   1.58714   1.61212   1.64207   1.71500
 Alpha virt. eigenvalues --    1.81184   1.84012   1.87834   1.92059   1.96851
 Alpha virt. eigenvalues --    2.00698   2.14834   2.15381   2.21916   2.36423
 Alpha virt. eigenvalues --    2.38374   2.48223   2.49142   2.64300   2.65564
 Alpha virt. eigenvalues --    2.68835   2.68933   2.73654   2.74310   2.78936
 Alpha virt. eigenvalues --    2.80442   2.81065   2.81298   2.83018   2.99244
 Alpha virt. eigenvalues --    3.00789   3.05729   3.09006   3.09062   3.11091
 Alpha virt. eigenvalues --    3.18453   3.19845   3.25665   3.26078   3.26506
 Alpha virt. eigenvalues --    3.27162   3.33109   3.40077   3.40977   3.41420
 Alpha virt. eigenvalues --    3.51026   3.53911   3.56080   3.56098   3.56333
 Alpha virt. eigenvalues --    3.57743   3.58600   3.66299   3.67488   3.68609
 Alpha virt. eigenvalues --    3.74323   3.78117   3.79053   3.84454   3.88648
 Alpha virt. eigenvalues --    3.95473   3.95535   3.96931   3.99909   4.42402
 Alpha virt. eigenvalues --    4.53333   4.55506   4.83104   4.96778   5.00810
 Alpha virt. eigenvalues --    5.06632   5.14028   5.23459   5.62093   5.64342
 Alpha virt. eigenvalues --   23.73675  23.99973  24.00346  24.03901  24.08750
 Alpha virt. eigenvalues --   35.65858
          Condensed to atoms (all electrons):
               1          2          3          4          5          6
     1  C    5.041424   0.328009   0.037091  -0.202755   0.120661   0.272410
     2  C    0.328009   4.942693   0.466948   0.055806  -0.202754   0.127854
     3  C    0.037091   0.466948   4.834820   0.466947   0.037086  -0.093421
     4  C   -0.202755   0.055806   0.466947   4.942701   0.328005   0.127857
     5  C    0.120661  -0.202754   0.037086   0.328005   5.041427   0.272411
     6  N    0.272410   0.127854  -0.093421   0.127857   0.272411   6.737669
     7  H    0.005149  -0.038808   0.404253  -0.038803   0.005149   0.000396
     8  H    0.449825  -0.089479   0.018951  -0.005073   0.015616  -0.075980
     9  H   -0.044550   0.407388  -0.047421   0.017218   0.002002   0.002565
    10  H    0.002002   0.017217  -0.047416   0.407387  -0.044552   0.002565
    11  H    0.015616  -0.005072   0.018952  -0.089478   0.449824  -0.075980
               7          8          9         10         11
     1  C    0.005149   0.449825  -0.044550   0.002002   0.015616
     2  C   -0.038808  -0.089479   0.407388   0.017217  -0.005072
     3  C    0.404253   0.018951  -0.047421  -0.047416   0.018952
     4  C   -0.038803  -0.005073   0.017218   0.407387  -0.089478
     5  C    0.005149   0.015616   0.002002  -0.044552   0.449824
     6  N    0.000396  -0.075980   0.002565   0.002565  -0.075980
     7  H    0.584442  -0.000391  -0.005965  -0.005965  -0.000391
     8  H   -0.000391   0.593475  -0.003007   0.000140  -0.000053
     9  H   -0.005965  -0.003007   0.581130  -0.000308   0.000140
    10  H   -0.005965   0.000140  -0.000308   0.581129  -0.003007
    11  H   -0.000391  -0.000053   0.000140  -0.003007   0.593475
 Mulliken charges:
               1
     1  C   -0.024881
     2  C   -0.009803
     3  C   -0.096788
     4  C   -0.009811
     5  C   -0.024873
     6  N   -0.298345
     7  H    0.090935
     8  H    0.095975
     9  H    0.090808
    10  H    0.090809
    11  H    0.095975
 Sum of Mulliken charges =   0.00000
 Mulliken charges with hydrogens summed into heavy atoms:
               1
     1  C    0.071094
     2  C    0.081005
     3  C   -0.005854
     4  C    0.080998
     5  C    0.071102
     6  N   -0.298345
 Electronic spatial extent (au):  <R**2>=            433.8165
 Charge=              0.0000 electrons
 Dipole moment (field-independent basis, Debye):
    X=              0.0002    Y=              2.3119    Z=              0.0001  Tot=              2.3119
 Quadrupole moment (field-independent basis, Debye-Ang):
   XX=            -29.6127   YY=            -36.7894   ZZ=            -38.1681
   XY=             -0.0008   XZ=              0.0011   YZ=              0.0001
 Traceless Quadrupole moment (field-independent basis, Debye-Ang):
   XX=              5.2440   YY=             -1.9327   ZZ=             -3.3114
   XY=             -0.0008   XZ=              0.0011   YZ=              0.0001
 Octapole moment (field-independent basis, Debye-Ang**2):
  XXX=             -0.0004  YYY=             16.0488  ZZZ=             -0.0003  XYY=              0.0018
  XXY=             -1.9771  XXZ=             -0.0005  XZZ=             -0.0001  YZZ=             -1.2467
  YYZ=              0.0012  XYZ=             -0.0001
 Hexadecapole moment (field-independent basis, Debye-Ang**3):
 XXXX=           -255.1321 YYYY=           -290.4407 ZZZZ=            -44.6094 XXXY=              0.0009
 XXXZ=             -0.0113 YYYX=             -0.0058 YYYZ=             -0.0076 ZZZX=             -0.0192
 ZZZY=             -0.0087 XXYY=            -81.6554 XXZZ=            -59.7675 YYZZ=            -58.2767
 XXYZ=             -0.0017 YYXZ=             -0.0035 ZZXY=              0.0001
 N-N= 2.065304220272D+02 E-N=-9.899650256098D+02  KE= 2.473160404595D+02
 1\1\GINC-HRG05\FOpt\RB3LYP\6-311+G(2d,p)\C5H5N1\UNKNOWN\24-Jul-2023\0\
 \# opt freq B3LYP/6-311+G(2d,p) scf=xqc out=wfn geom=connectivity\\Tit
 le Card Required\\0,1\C,-3.3683981608,0.1839198526,0.0000254645\C,-1.9
 772738268,0.1809480045,-0.0000683309\C,-1.3118244733,1.4003958277,-0.0
 002884186\C,-2.064356105,2.5681077287,-0.0004033412\C,-3.4515641061,2.
 4637686423,-0.0003134702\N,-4.1036643632,1.298535308,-0.0000995\H,-0.2
 288253846,1.4398769627,-0.0003654413\H,-3.9194552842,-0.7516977683,0.0
 001814883\H,-1.4342925637,-0.7560374404,0.0000541769\H,-1.5911331035,3
 .5421877922,-0.0005367078\H,-4.0693395189,3.35673718,-0.0003749196\\Ve
 rsion=EM64L-G16RevB.01\State=1-A\HF=-248.3579438\RMSD=6.834e-09\RMSF=1
 .540e-04\Dipole=0.9089683,0.0331625,-0.0000429\Quadrupole=-1.4297906,3
 .8917071,-2.4619165,-0.1944419,-0.0000195,-0.0008367\PG=C01 [X(C5H5N1)
 ]\\@

 Writing a WFN file to "Pyridine.wfn"


 A MAN IS NEVER SO BRILLIANT AS WHEN HE TAKES THE WORDS RIGHT OUT
 OF YOUR MOUTH. -- ARNOT SHEPPARD, JR.
 Job cpu time:       0 days  0 hours  7 minutes 23.9 seconds.
 Elapsed time:       0 days  0 hours  0 minutes 55.8 seconds.
 File lengths (MBytes):  RWF=     20 Int=      0 D2E=      0 Chk=      5 Scr=      1
 Normal termination of Gaussian 16 at Mon Jul 24 12:08:00 2023.
 Link1:  Proceeding to internal job step number  2.
 ----------------------------------------------------------------------
 #N Geom=AllCheck Guess=TCheck SCRF=Check GenChk RB3LYP/6-311+G(2d,p) F
 req
 ----------------------------------------------------------------------
 1/10=4,29=7,30=1,38=1,40=1/1,3;
 2/12=2,40=1/2;
 3/5=4,6=6,7=112,11=2,14=-4,25=1,30=1,70=2,71=2,74=-5,116=1,140=1/1,2,3;
 4/5=101/1;
 5/5=2,8=3,13=1,38=6,98=1/2,8;
 8/6=4,10=90,11=11/1;
 11/6=1,8=1,9=11,15=111,16=1/1,2,10;
 10/6=1/2;
 6/7=2,8=2,9=2,10=2,28=1/1;
 7/8=1,10=1,25=1/1,2,3,16;
 1/10=4,30=1/3;
 99//99;
 Structure from the checkpoint file:  "Pyridine.chk"
 -------------------
 Title Card Required
 -------------------
 Charge =  0 Multiplicity = 1
 Redundant internal coordinates found in file.  (old form).
 C,0,-3.3683981608,0.1839198526,0.0000254645
 C,0,-1.9772738268,0.1809480045,-0.0000683309
 C,0,-1.3118244733,1.4003958277,-0.0002884186
 C,0,-2.064356105,2.5681077287,-0.0004033412
 C,0,-3.4515641061,2.4637686423,-0.0003134702
 N,0,-4.1036643632,1.298535308,-0.0000995
 H,0,-0.2288253846,1.4398769627,-0.0003654413
 H,0,-3.9194552842,-0.7516977683,0.0001814883
 H,0,-1.4342925637,-0.7560374404,0.0000541769
 H,0,-1.5911331035,3.5421877922,-0.0005367078
 H,0,-4.0693395189,3.35673718,-0.0003749196
 Recover connectivity data from disk.

 GradGradGradGradGradGradGradGradGradGradGradGradGradGradGradGradGradGrad
 Berny optimization.
 Initialization pass.
                           ----------------------------
                           !    Initial Parameters    !
                           ! (Angstroms and Degrees)  !
 --------------------------                            --------------------------
 ! Name  Definition              Value          Derivative Info.                !
 --------------------------------------------------------------------------------
 ! R1    R(1,2)                  1.3911         calculate D2E/DX2 analytically  !
 ! R2    R(1,6)                  1.3353         calculate D2E/DX2 analytically  !
 ! R3    R(1,8)                  1.0858         calculate D2E/DX2 analytically  !
 ! R4    R(2,3)                  1.3892         calculate D2E/DX2 analytically  !
 ! R5    R(2,9)                  1.0829         calculate D2E/DX2 analytically  !
 ! R6    R(3,4)                  1.3892         calculate D2E/DX2 analytically  !
 ! R7    R(3,7)                  1.0837         calculate D2E/DX2 analytically  !
 ! R8    R(4,5)                  1.3911         calculate D2E/DX2 analytically  !
 ! R9    R(4,10)                 1.0829         calculate D2E/DX2 analytically  !
 ! R10   R(5,6)                  1.3353         calculate D2E/DX2 analytically  !
 ! R11   R(5,11)                 1.0858         calculate D2E/DX2 analytically  !
 ! A1    A(2,1,6)              123.5336         calculate D2E/DX2 analytically  !
 ! A2    A(2,1,8)              120.3747         calculate D2E/DX2 analytically  !
 ! A3    A(6,1,8)              116.0917         calculate D2E/DX2 analytically  !
 ! A4    A(1,2,3)              118.4988         calculate D2E/DX2 analytically  !
 ! A5    A(1,2,9)              120.2146         calculate D2E/DX2 analytically  !
 ! A6    A(3,2,9)              121.2866         calculate D2E/DX2 analytically  !
 ! A7    A(2,3,4)              118.5791         calculate D2E/DX2 analytically  !
 ! A8    A(2,3,7)              120.709          calculate D2E/DX2 analytically  !
 ! A9    A(4,3,7)              120.7119         calculate D2E/DX2 analytically  !
 ! A10   A(3,4,5)              118.4983         calculate D2E/DX2 analytically  !
 ! A11   A(3,4,10)             121.2891         calculate D2E/DX2 analytically  !
 ! A12   A(5,4,10)             120.2126         calculate D2E/DX2 analytically  !
 ! A13   A(4,5,6)              123.5341         calculate D2E/DX2 analytically  !
 ! A14   A(4,5,11)             120.3749         calculate D2E/DX2 analytically  !
 ! A15   A(6,5,11)             116.0909         calculate D2E/DX2 analytically  !
 ! A16   A(1,6,5)              117.3561         calculate D2E/DX2 analytically  !
 ! D1    D(6,1,2,3)              0.0008         calculate D2E/DX2 analytically  !
 ! D2    D(6,1,2,9)            179.9992         calculate D2E/DX2 analytically  !
 ! D3    D(8,1,2,3)            179.999          calculate D2E/DX2 analytically  !
 ! D4    D(8,1,2,9)             -0.0025         calculate D2E/DX2 analytically  !
 ! D5    D(2,1,6,5)             -0.0006         calculate D2E/DX2 analytically  !
 ! D6    D(8,1,6,5)           -179.999          calculate D2E/DX2 analytically  !
 ! D7    D(1,2,3,4)              0.0001         calculate D2E/DX2 analytically  !
 ! D8    D(1,2,3,7)            179.9999         calculate D2E/DX2 analytically  !
 ! D9    D(9,2,3,4)           -179.9984         calculate D2E/DX2 analytically  !
 ! D10   D(9,2,3,7)              0.0014         calculate D2E/DX2 analytically  !
 ! D11   D(2,3,4,5)             -0.001          calculate D2E/DX2 analytically  !
 ! D12   D(2,3,4,10)           179.9976         calculate D2E/DX2 analytically  !
 ! D13   D(7,3,4,5)            179.9992         calculate D2E/DX2 analytically  !
 ! D14   D(7,3,4,10)            -0.0022         calculate D2E/DX2 analytically  !
 ! D15   D(3,4,5,6)              0.0012         calculate D2E/DX2 analytically  !
 ! D16   D(3,4,5,11)           179.9985         calculate D2E/DX2 analytically  !
 ! D17   D(10,4,5,6)          -179.9974         calculate D2E/DX2 analytically  !
 ! D18   D(10,4,5,11)           -0.0001         calculate D2E/DX2 analytically  !
 ! D19   D(4,5,6,1)             -0.0004         calculate D2E/DX2 analytically  !
 ! D20   D(11,5,6,1)          -179.9978         calculate D2E/DX2 analytically  !
 --------------------------------------------------------------------------------
 Trust Radius=3.00D-01 FncErr=1.00D-07 GrdErr=1.00D-07 EigMax=2.50D+02 EigMin=1.00D-04
 Number of steps in this run=      2 maximum allowed number of steps=      2.
 GradGradGradGradGradGradGradGradGradGradGradGradGradGradGradGradGradGrad

                          Input orientation:                          
 ---------------------------------------------------------------------
 Center     Atomic      Atomic             Coordinates (Angstroms)
 Number     Number       Type             X           Y           Z
 ---------------------------------------------------------------------
      1          6           0       -3.368398    0.183920    0.000025
      2          6           0       -1.977274    0.180948   -0.000068
      3          6           0       -1.311824    1.400396   -0.000288
      4          6           0       -2.064356    2.568108   -0.000403
      5          6           0       -3.451564    2.463769   -0.000313
      6          7           0       -4.103664    1.298535   -0.000099
      7          1           0       -0.228825    1.439877   -0.000365
      8          1           0       -3.919455   -0.751698    0.000181
      9          1           0       -1.434293   -0.756037    0.000054
     10          1           0       -1.591133    3.542188   -0.000537
     11          1           0       -4.069340    3.356737   -0.000375
 ---------------------------------------------------------------------
                    Distance matrix (angstroms):
                    1          2          3          4          5
     1  C    0.000000
     2  C    1.391128   0.000000
     3  C    2.389416   1.389200   0.000000
     4  C    2.717513   2.388748   1.389192   0.000000
     5  C    2.281365   2.717499   2.389403   1.391126   0.000000
     6  N    1.335284   2.402194   2.793697   2.402206   1.335292
     7  H    3.381471   2.154524   1.083719   2.154548   3.381479
     8  H    1.085838   2.154506   3.381012   3.802960   3.249330
[...]
    A4        2.06819   0.00000   0.00000   0.00006   0.00006   2.06825
    A5        2.09814   0.00004   0.00000   0.00020   0.00020   2.09834
    A6        2.11685  -0.00004   0.00000  -0.00026  -0.00026   2.11659
    A7        2.06960  -0.00012   0.00000  -0.00038  -0.00038   2.06921
    A8        2.10677   0.00006   0.00000   0.00022   0.00022   2.10699
    A9        2.10682   0.00006   0.00000   0.00016   0.00016   2.10699
   A10        2.06819   0.00000   0.00000   0.00007   0.00007   2.06825
   A11        2.11689  -0.00005   0.00000  -0.00030  -0.00030   2.11659
   A12        2.09811   0.00004   0.00000   0.00023   0.00023   2.09834
   A13        2.15608   0.00005   0.00000   0.00009   0.00009   2.15616
   A14        2.10094  -0.00008   0.00000  -0.00062  -0.00062   2.10031
   A15        2.02617   0.00002   0.00000   0.00054   0.00054   2.02671
   A16        2.04825   0.00001   0.00000   0.00008   0.00008   2.04833
    D1        0.00001   0.00000   0.00000  -0.00001  -0.00001   0.00000
    D2        3.14158   0.00000   0.00000   0.00001   0.00001   3.14159
    D3        3.14158   0.00000   0.00000   0.00002   0.00002   3.14159
    D4       -0.00004   0.00000   0.00000   0.00004   0.00004   0.00000
    D5       -0.00001   0.00000   0.00000   0.00001   0.00001   0.00000
    D6       -3.14157   0.00000   0.00000  -0.00002  -0.00002   3.14159
    D7        0.00000   0.00000   0.00000   0.00000   0.00000   0.00000
    D8        3.14159   0.00000   0.00000   0.00000   0.00000  -3.14159
    D9       -3.14156   0.00000   0.00000  -0.00003  -0.00003  -3.14159
   D10        0.00002   0.00000   0.00000  -0.00002  -0.00002   0.00000
   D11       -0.00002   0.00000   0.00000   0.00002   0.00002   0.00000
   D12        3.14155   0.00000   0.00000   0.00004   0.00004   3.14159
   D13        3.14158   0.00000   0.00000   0.00001   0.00001  -3.14159
   D14       -0.00004   0.00000   0.00000   0.00004   0.00004   0.00000
   D15        0.00002   0.00000   0.00000  -0.00002  -0.00002   0.00000
   D16        3.14157   0.00000   0.00000   0.00003   0.00003   3.14159
   D17       -3.14155   0.00000   0.00000  -0.00004  -0.00004   3.14159
   D18        0.00000   0.00000   0.00000   0.00000   0.00000   0.00000
   D19       -0.00001   0.00000   0.00000   0.00001   0.00001   0.00000
   D20       -3.14155   0.00000   0.00000  -0.00004  -0.00004  -3.14159
         Item               Value     Threshold  Converged?
 Maximum Force            0.000345     0.000450     YES
 RMS     Force            0.000088     0.000300     YES
 Maximum Displacement     0.000636     0.001800     YES
 RMS     Displacement     0.000201     0.001200     YES
 Predicted change in Energy=-4.908938D-07
 Optimization completed.
    -- Stationary point found.
                           ----------------------------
                           !   Optimized Parameters   !
                           ! (Angstroms and Degrees)  !
 --------------------------                            --------------------------
 ! Name  Definition              Value          Derivative Info.                !
 --------------------------------------------------------------------------------
 ! R1    R(1,2)                  1.3911         -DE/DX =    0.0002              !
 ! R2    R(1,6)                  1.3353         -DE/DX =   -0.0003              !
 ! R3    R(1,8)                  1.0858         -DE/DX =    0.0                 !
 ! R4    R(2,3)                  1.3892         -DE/DX =    0.0                 !
 ! R5    R(2,9)                  1.0829         -DE/DX =    0.0001              !
 ! R6    R(3,4)                  1.3892         -DE/DX =    0.0                 !
 ! R7    R(3,7)                  1.0837         -DE/DX =    0.0                 !
 ! R8    R(4,5)                  1.3911         -DE/DX =    0.0002              !
 ! R9    R(4,10)                 1.0829         -DE/DX =    0.0001              !
 ! R10   R(5,6)                  1.3353         -DE/DX =   -0.0003              !
 ! R11   R(5,11)                 1.0858         -DE/DX =    0.0                 !
 ! A1    A(2,1,6)              123.5336         -DE/DX =    0.0001              !
 ! A2    A(2,1,8)              120.3747         -DE/DX =   -0.0001              !
 ! A3    A(6,1,8)              116.0917         -DE/DX =    0.0                 !
 ! A4    A(1,2,3)              118.4988         -DE/DX =    0.0                 !
 ! A5    A(1,2,9)              120.2146         -DE/DX =    0.0                 !
 ! A6    A(3,2,9)              121.2866         -DE/DX =    0.0                 !
 ! A7    A(2,3,4)              118.5791         -DE/DX =   -0.0001              !
 ! A8    A(2,3,7)              120.709          -DE/DX =    0.0001              !
 ! A9    A(4,3,7)              120.7119         -DE/DX =    0.0001              !
 ! A10   A(3,4,5)              118.4983         -DE/DX =    0.0                 !
 ! A11   A(3,4,10)             121.2891         -DE/DX =    0.0                 !
 ! A12   A(5,4,10)             120.2126         -DE/DX =    0.0                 !
 ! A13   A(4,5,6)              123.5341         -DE/DX =    0.0001              !
 ! A14   A(4,5,11)             120.3749         -DE/DX =   -0.0001              !
 ! A15   A(6,5,11)             116.0909         -DE/DX =    0.0                 !
 ! A16   A(1,6,5)              117.3561         -DE/DX =    0.0                 !
 ! D1    D(6,1,2,3)              0.0008         -DE/DX =    0.0                 !
 ! D2    D(6,1,2,9)            179.9992         -DE/DX =    0.0                 !
 ! D3    D(8,1,2,3)            179.999          -DE/DX =    0.0                 !
 ! D4    D(8,1,2,9)             -0.0025         -DE/DX =    0.0                 !
 ! D5    D(2,1,6,5)             -0.0006         -DE/DX =    0.0                 !
 ! D6    D(8,1,6,5)            180.001          -DE/DX =    0.0                 !
 ! D7    D(1,2,3,4)              0.0001         -DE/DX =    0.0                 !
 ! D8    D(1,2,3,7)           -180.0001         -DE/DX =    0.0                 !
 ! D9    D(9,2,3,4)           -179.9984         -DE/DX =    0.0                 !
 ! D10   D(9,2,3,7)              0.0014         -DE/DX =    0.0                 !
 ! D11   D(2,3,4,5)             -0.001          -DE/DX =    0.0                 !
 ! D12   D(2,3,4,10)           179.9976         -DE/DX =    0.0                 !
 ! D13   D(7,3,4,5)           -180.0008         -DE/DX =    0.0                 !
 ! D14   D(7,3,4,10)            -0.0022         -DE/DX =    0.0                 !
 ! D15   D(3,4,5,6)              0.0012         -DE/DX =    0.0                 !
 ! D16   D(3,4,5,11)           179.9985         -DE/DX =    0.0                 !
 ! D17   D(10,4,5,6)           180.0026         -DE/DX =    0.0                 !
 ! D18   D(10,4,5,11)           -0.0001         -DE/DX =    0.0                 !
 ! D19   D(4,5,6,1)             -0.0004         -DE/DX =    0.0                 !
 ! D20   D(11,5,6,1)          -179.9978         -DE/DX =    0.0                 !
 --------------------------------------------------------------------------------
 GradGradGradGradGradGradGradGradGradGradGradGradGradGradGradGradGradGrad


 ----------------------------------------------------------------------

 Electric dipole moment (input orientation):
 (Debye = 10**-18 statcoulomb cm , SI units = C m)
                  (au)            (Debye)         (10**-30 SI)
   Tot        0.909571D+00      0.231190D+01      0.771167D+01
   x          0.908967D+00      0.231036D+01      0.770654D+01
   y          0.331622D-01      0.842900D-01      0.281161D+00
   z         -0.429001D-04     -0.109041D-03     -0.363722D-03

 Dipole polarizability, Alpha (input orientation).
 (esu units = cm**3 , SI units = C**2 m**2 J**-1)
 Alpha(0;0):
               (au)            (10**-24 esu)      (10**-40 SI)
   iso        0.620994D+02      0.920219D+01      0.102388D+02
   aniso      0.349008D+02      0.517177D+01      0.575437D+01
   xx         0.715931D+02      0.106090D+02      0.118041D+02
   yx        -0.151805D+00     -0.224952D-01     -0.250293D-01
   yy         0.757482D+02      0.112247D+02      0.124892D+02
   zx        -0.199842D-02     -0.296135D-03     -0.329495D-03
   zy        -0.535122D-02     -0.792969D-03     -0.882297D-03
   zz         0.389569D+02      0.577281D+01      0.642312D+01

 ----------------------------------------------------------------------

 Dipole orientation:
     6         -0.02087339          0.57902638         -6.34844627
     6         -0.01712102          0.47763807         -3.72155483
     6         -0.09905846          2.73319259         -2.38085653
     6         -0.18106791          4.98873859         -3.72153689
     6         -0.17741446          4.88733881         -6.34842595
     7         -0.09916607          2.73317990         -7.66017963
     1         -0.09900744          2.73313705         -0.33292536
     1          0.04191899         -1.14875189         -7.45356302
     1          0.04847964         -1.32804959         -2.76070744
     1         -0.24674001          6.79446146         -2.76075755
     1         -0.24028086          6.61510291         -7.45355250

 Electric dipole moment (dipole orientation):
 (Debye = 10**-18 statcoulomb cm , SI units = C m)
                  (au)            (Debye)         (10**-30 SI)
   Tot        0.909571D+00      0.231190D+01      0.771167D+01
   x          0.000000D+00      0.000000D+00      0.000000D+00
   y          0.000000D+00      0.000000D+00      0.000000D+00
   z          0.909571D+00      0.231190D+01      0.771167D+01

 Dipole polarizability, Alpha (dipole orientation).
 (esu units = cm**3 , SI units = C**2 m**2 J**-1)
 Alpha(0;0):
               (au)            (10**-24 esu)      (10**-40 SI)
   iso        0.620994D+02      0.920219D+01      0.102388D+02
   aniso      0.349008D+02      0.517177D+01      0.575437D+01
   xx         0.390054D+02      0.578000D+01      0.643112D+01
   yx        -0.133543D+01     -0.197891D+00     -0.220183D+00
   yy         0.757053D+02      0.112184D+02      0.124821D+02
   zx         0.653111D-03      0.967811D-04      0.107684D-03
   zy         0.131982D-04      0.195577D-05      0.217608D-05
   zz         0.715876D+02      0.106082D+02      0.118032D+02

 ----------------------------------------------------------------------
 1\1\GINC-HRG05\Freq\RB3LYP\6-311+G(2d,p)\C5H5N1\UNKNOWN\24-Jul-2023\0\
 \#N Geom=AllCheck Guess=TCheck SCRF=Check GenChk RB3LYP/6-311+G(2d,p) 
 Freq\\Title Card Required\\0,1\C,-3.3683981608,0.1839198526,0.00002546
 45\C,-1.9772738268,0.1809480045,-0.0000683309\C,-1.3118244733,1.400395
 8277,-0.0002884186\C,-2.064356105,2.5681077287,-0.0004033412\C,-3.4515
 641061,2.4637686423,-0.0003134702\N,-4.1036643632,1.298535308,-0.00009
 95\H,-0.2288253846,1.4398769627,-0.0003654413\H,-3.9194552842,-0.75169
 77683,0.0001814883\H,-1.4342925637,-0.7560374404,0.0000541769\H,-1.591
 1331035,3.5421877922,-0.0005367078\H,-4.0693395189,3.35673718,-0.00037
 49196\\Version=EM64L-G16RevB.01\State=1-A\HF=-248.3579438\RMSD=3.154e-
 09\RMSF=1.540e-04\ZeroPoint=0.0883964\Thermal=0.0926777\Dipole=0.90896
 67,0.0331622,-0.0000429\DipoleDeriv=0.2915316,0.2174661,-0.0000533,0.0
 196611,0.2844997,-0.0000393,-0.0000151,-0.0000427,-0.0039904,-0.163265
 4,-0.2540374,0.0000448,-0.0939016,-0.0608867,-0.0000037,0.000026,-0.00
 00083,-0.1067834,0.1838875,0.0005875,-0.0000202,0.0005942,0.1675465,-0
 .0000424,-0.0000287,-0.0000415,-0.1012488,-0.1880063,0.2447464,-0.0000
 256,0.0846062,-0.0361316,-0.0000066,0.0000067,-0.00001,-0.1067805,0.30
 87158,-0.2156925,0.0000126,-0.0178893,0.2672901,-0.0000335,-0.0000295,
 -0.0000126,-0.0039941,-0.4870109,-0.0025169,0.00001,-0.0025123,-0.4181
 264,0.0000114,0.0000128,0.0000184,-0.2871805,-0.0832406,-0.005862,0.00
 00139,-0.0058549,0.0772588,0.0000068,0.0000139,0.0000089,0.1246884,0.0
 351738,-0.0748467,0.0000156,-0.0504993,-0.086881,0.0000316,0.0000073,0
 .0000257,0.1060463,0.0336577,0.068942,-0.000004,0.0678425,-0.0539851,0
 .0000247,-0.000006,0.0000319,0.1365978,0.0431408,-0.0618366,0.000013,-
 0.0607481,-0.0634641,0.0000297,0.0000095,0.0000218,0.1365974,0.025416,
 0.0830499,-0.0000068,0.0587015,-0.0771201,0.0000215,0.0000031,0.000008
 3,0.1060477\Polar=71.5931479,-0.1518051,75.7482434,-0.0019984,-0.00535
 12,38.9568775\Quadrupole=-1.4297979,3.8917147,-2.4619168,-0.1944424,-0
 .0000195,-0.0008367\PG=C01 [X(C5H5N1)]\NImag=0\\0.67016304,0.05417323,
 0.72710659,-0.00003762,-0.00008479,0.15858553,-0.31460417,-0.04529212,
 0.00002255,0.66865513,0.02625456,-0.13838749,0.00000820,-0.03852944,0.
 73105420,0.00001265,0.00001295,-0.07050834,-0.00002679,-0.00009081,0.1
 2999609,-0.02386396,-0.03451048,0.00000680,-0.18093673,-0.11741654,0.0
 0002454,0.74724470,-0.08360948,0.03893766,0.00000097,-0.05368219,-0.28
 835039,0.00003764,0.00332145,0.65587881,0.00001400,-0.00000188,0.00874
 898,0.00001520,0.00004060,-0.06323633,-0.00003982,-0.00007371,0.140308
 34,-0.06000692,0.03883996,-0.00000249,0.06959373,0.02536310,-0.0000070
 8,-0.19394529,0.06058976,-0.00000037,0.66338068,0.02321408,-0.01589940
 ,-0.00000057,-0.01609755,-0.05721824,0.00001000,0.12432160,-0.27535945
 ,0.00002129,0.03357080,0.73634258,-0.00000035,-0.00000140,-0.01051247,
 -0.00000073,0.00000758,0.00680442,-0.00000965,0.00002392,-0.06323356,-
 0.00003229,-0.00007734,0.12999473,0.06264650,-0.02059500,-0.00000103,-
 0.05526308,-0.02609004,0.00000649,-0.03211610,0.07841903,-0.00000890,-
 0.31505466,-0.03916506,0.00001824,0.67834423,0.03227431,-0.09720168,0.
 00001269,-0.04171571,-0.02064409,0.00000409,0.02931980,0.04718810,-0.0
 0000700,0.03238296,-0.13793964,0.00000637,-0.05774599,0.71891727,-0.00
 000844,0.00001570,0.00346343,0.00000855,0.00000316,-0.01051263,-0.0000
 0113,-0.00001027,0.00874899,0.00000919,0.00001100,-0.07050826,-0.00002
 665,-0.00006993,0.15858611,-0.18955033,0.10693710,-0.00000856,-0.03408
 993,0.03427175,-0.00000165,0.00430473,0.00315943,-0.00000144,-0.024078
 58,-0.03849648,0.00000824,-0.17657344,-0.10035777,0.00002169,0.4048911
 1,0.07720904,-0.26651767,0.00002546,0.09851161,0.03376263,-0.00000732,
 0.00315972,-0.08218827,0.00000982,-0.10273666,0.02375295,0.00000665,-0
 .07062913,-0.27947532,0.00003438,-0.00844099,0.63569219,-0.00000493,0.
 00002394,-0.06813340,-0.00001069,-0.00000370,0.02408442,-0.00000122,0.
 00001035,-0.01069815,0.00001732,0.00000228,0.02408417,0.00001843,0.000
 03742,-0.06813555,-0.00001730,-0.00007968,0.09519316,0.00114611,-0.003
 35142,0.00000098,-0.01070938,0.00151673,0.00000077,-0.33412961,-0.0099
 5157,0.00002052,-0.01262060,-0.00278232,0.00000146,0.00070176,0.003777
 57,0.00000009,0.00054410,0.00004598,-0.00000032,0.35467269,-0.00230791
 ,-0.00513326,0.00000214,-0.02896837,0.00470279,0.00000181,-0.00995023,
 -0.06153475,0.00000363,0.02770152,0.00661645,-0.00000186,0.00273418,-0
 .00468873,0.00000165,0.00004611,-0.00071749,-0.00000052,0.01081371,0.0
 5847875,0.00000063,0.00000241,0.00873889,0.00000516,0.00000004,0.00477
 777,0.00002083,0.00000330,-0.04013536,-0.00000328,0.00000020,0.0047771
 2,0.00000033,0.00000168,0.00873899,-0.00000038,-0.00000076,-0.00416157
 ,-0.00002288,-0.00000536,0.02598493,-0.13754919,-0.12396972,0.00002240
 ,-0.01052613,-0.02786172,0.00000487,-0.00594375,0.00126707,0.00000063,
 -0.00040416,0.00109682,-0.00000019,0.00025280,0.00468056,-0.00000012,0
 .01380157,0.02025727,-0.00000396,-0.00063281,-0.00145393,0.00000024,0.
 13983749,-0.12344297,-0.24477422,0.00003458,0.00153876,0.00379075,0.00
 000023,0.00034356,0.00126766,0.00000075,0.00019356,0.00001561,-0.00000
 009,0.00275412,-0.00171081,0.00000152,-0.00528007,-0.03361984,0.000004
 68,0.00023421,0.00007017,-0.00000009,0.12496897,0.27531704,0.00002144,
 0.00003370,-0.04176178,0.00000151,0.00000253,0.00671492,0.00000085,0.0
 0000060,0.00715451,-0.00000002,-0.00000018,-0.00056868,-0.00000002,0.0
 0000151,0.01074088,-0.00000027,0.00000356,-0.00400384,0.,0.00000004,-0
 .00038687,-0.00002343,-0.00004112,0.02657066,-0.00769743,0.03024034,-0
 .00000425,-0.13070879,0.12009077,-0.00001381,0.01261601,-0.01458673,0.
 00000168,-0.00054720,-0.00339003,0.00000093,-0.00124586,-0.00214314,0.
 00000039,-0.00696975,0.00037965,0.00000088,0.00085656,0.00066107,-0.00
 000035,0.00070566,-0.00054577,-0.00000014,0.13243082,-0.00206615,0.003
 75982,-0.00000029,0.12024250,-0.26628680,0.00003046,0.01606205,-0.0185
 0555,0.00000241,-0.00407859,-0.00289868,0.00000192,-0.00098995,0.00013
 023,-0.00000003,-0.00030892,0.00190984,0.00000108,-0.00022818,0.001041
 71,-0.00000080,0.00050080,0.00043491,-0.00000062,-0.13013963,0.2811923
 7,0.00000123,-0.00000254,0.00098858,-0.00001443,0.00003136,-0.03554712
 ,-0.00000303,0.00000366,0.00259430,0.00000111,0.00000176,0.00799526,0.
 00000034,0.00000011,-0.00035019,0.00000094,0.00000078,0.00788729,-0.00
 000029,-0.00000076,-0.00397355,-0.00000027,-0.00000043,-0.00304416,0.0
 0001476,-0.00003392,0.02494743,-0.00146634,0.00202650,-0.00000023,-0.0
 0110250,0.00352131,-0.00000011,0.01255852,0.01685578,-0.00000260,-0.11
 395398,-0.10895298,0.00001632,-0.00559011,-0.03092473,0.00000426,-0.00
 691733,-0.00102464,0.00000097,0.00088881,-0.00067250,-0.00000011,0.000
 14437,-0.00024544,-0.00000006,0.00044046,0.00091154,-0.00000020,0.1142
 9714,0.00087324,0.00035061,-0.00000015,0.00420979,-0.00234304,0.000000
 99,-0.01379184,-0.01844612,0.00000333,-0.10910696,-0.28304001,0.000034
 01,0.00138269,0.00165034,-0.00000013,-0.00033623,0.00185752,0.00000059
 ,0.00021708,0.00100923,-0.00000058,-0.00008601,0.00000263,-0.00000020,
 -0.00082050,-0.00080532,0.00000023,0.11793998,0.29932440,0.,-0.0000002
 2,-0.00035017,-0.00000011,0.00000119,0.00799544,0.00000115,0.00000242,
 0.00259384,0.00001636,0.00003295,-0.03554760,0.00000014,0.00000160,0.0
 0098925,0.00000110,0.00000103,0.00788726,-0.00000037,-0.00000065,-0.00
 397354,-0.00000009,-0.00000025,-0.00186371,0.00000008,0.00000011,0.000
 36581,-0.00001803,-0.00003775,0.02494771,0.00078268,-0.00449842,0.0000
 0144,-0.00030815,-0.00112047,0.00000013,-0.00578852,-0.00178255,0.0000
 0111,-0.01236303,0.02668111,-0.00000199,-0.15610206,0.13045215,-0.0000
 0785,0.01463785,-0.01673186,0.00000083,-0.00071764,0.00139636,-0.00000
 019,0.00031415,-0.00051892,0.00000013,0.00011952,0.00009453,-0.0000001
 6,0.00070096,-0.00048124,-0.00000022,0.15872422,-0.00257194,-0.0022409
 7,0.00000176,-0.00021730,-0.00008033,-0.00000004,-0.00085909,0.0011123
 0,0.00000076,-0.00271944,0.00562783,0.00000023,0.12992515,-0.22622566,
 0.00001293,0.00880607,-0.03445656,0.00000357,-0.00029179,0.00015513,-0
 .00000006,0.00059988,-0.00079391,0.00000018,0.00025397,0.00002748,-0.0
 0000026,0.00056518,0.00043974,-0.00000043,-0.13349069,0.25643495,0.000
 00138,0.00000212,0.01074074,-0.00000022,-0.00000015,-0.00056866,0.0000
 0068,0.00000111,0.00715444,0.00000156,-0.00000139,0.00671488,-0.000007
 37,0.00001146,-0.04176101,-0.00000238,0.00000608,-0.00400380,0.0000000
 3,-0.00000012,-0.00038680,-0.00000008,0.00000022,0.00044807,-0.0000001
 6,-0.00000032,-0.00186364,-0.00000021,-0.00000035,-0.00304428,0.000006
 78,-0.00001866,0.02657005\\0.00037007,-0.00040709,0.00000323,-0.000031
 15,-0.00008480,-0.00000154,-0.00009261,0.00000319,-0.00000012,-0.00003
 225,0.00007622,-0.00000014,0.00034496,0.00043941,-0.00000444,-0.000336
 98,-0.00001680,0.00000069,-0.00001337,-0.00000314,-0.00000054,-0.00002
 261,0.00005245,-0.00000131,-0.00008455,0.00006767,0.00000106,-0.000082
 78,-0.00007152,0.00000156,-0.00001873,-0.00005559,0.00000156\\\@


 Some scientists claim that hydrogen, because it is so
 plentiful, is the basic building block of the universe. 
 I dispute that. I say that stupidity is far more
 abundant than hydrogen, and THAT is the basic building 
 block of the universe.
                   --Frank Zappa
 Job cpu time:       0 days  0 hours 22 minutes 18.4 seconds.
 Elapsed time:       0 days  0 hours  2 minutes 47.4 seconds.
 File lengths (MBytes):  RWF=     40 Int=      0 D2E=      0 Chk=      5 Scr=      1
 Normal termination of Gaussian 16 at Mon Jul 24 12:10:49 2023.
