 Entering Gaussian System, Link 0=g16
 Initial command:
 /software/gaussian//g16/l1.exe "/software/scratch/Gau-17456.inp" -scrdir="/software/scratch/"
 Entering Link 1 = /software/gaussian//g16/l1.exe PID=     17458.
  
 Copyright (c) 1988-2017, Gaussian, Inc.  All Rights Reserved.
  
 This is part of the Gaussian(R) 16 program.  It is based on
 the Gaussian(R) 09 system (copyright 2009, Gaussian, Inc.),
 the Gaussian(R) 03 system (copyright 2003, Gaussian, Inc.),
 the Gaussian(R) 98 system (copyright 1998, Gaussian, Inc.),
 the Gaussian(R) 94 system (copyright 1995, Gaussian, Inc.),
 the Gaussian 92(TM) system (copyright 1992, Gaussian, Inc.),
 the Gaussian 90(TM) system (copyright 1990, Gaussian, Inc.),
 the Gaussian 88(TM) system (copyright 1988, Gaussian, Inc.),
 the Gaussian 86(TM) system (copyright 1986, Carnegie Mellon
 University), and the Gaussian 82(TM) system (copyright 1983,
 Carnegie Mellon University). Gaussian is a federally registered
 trademark of Gaussian, Inc.
  
 This software contains proprietary and confidential information,
 including trade secrets, belonging to Gaussian, Inc.
  
 This software is provided under written license and may be
 used, copied, transmitted, or stored only in accord with that
 written license.
  
 The following legend is applicable only to US Government
 contracts under FAR:
  
                    RESTRICTED RIGHTS LEGEND
  
 Use, reproduction and disclosure by the US Government is
 subject to restrictions as set forth in subparagraphs (a)
 and (c) of the Commercial Computer Software - Restricted
 Rights clause in FAR 52.227-19.
  
 Gaussian, Inc.
 340 Quinnipiac St., Bldg. 40, Wallingford CT 06492
  
  
 ---------------------------------------------------------------
 Warning -- This program may not be used in any manner that
 competes with the business of Gaussian, Inc. or will provide
 assistance to any competitor of Gaussian, Inc.  The licensee
 of this program is prohibited from giving any competitor of
 Gaussian, Inc. access to this program.  By using this program,
 the user acknowledges that Gaussian, Inc. is engaged in the
 business of creating and licensing software in the field of
 computational chemistry and represents and warrants to the
 licensee that it is not a competitor of Gaussian, Inc. and that
 it will not use this program in any manner prohibited above.
 ---------------------------------------------------------------
  

 Cite this work as:
 Gaussian 16, Revision B.01,
 M. J. Frisch, G. W. Trucks, H. B. Schlegel, G. E. Scuseria, 
 M. A. Robb, J. R. Cheeseman, G. Scalmani, V. Barone, 
 G. A. Petersson, H. Nakatsuji, X. Li, M. Caricato, A. V. Marenich, 
 J. Bloino, B. G. Janesko, R. Gomperts, B. Mennucci, H. P. Hratchian, 
 J. V. Ortiz, A. F. Izmaylov, J. L. Sonnenberg, D. Williams-Young, 
 F. Ding, F. Lipparini, F. Egidi, J. Goings, B. Peng, A. Petrone, 
 T. Henderson, D. Ranasinghe, V. G. Zakrzewski, J. Gao, N. Rega, 
 G. Zheng, W. Liang, M. Hada, M. Ehara, K. Toyota, R. Fukuda, 
 J. Hasegawa, M. Ishida, T. Nakajima, Y. Honda, O. Kitao, H. Nakai, 
 T. Vreven, K. Throssell, J. A. Montgomery, Jr., J. E. Peralta, 
 F. Ogliaro, M. J. Bearpark, J. J. Heyd, E. N. Brothers, K. N. Kudin, 
 V. N. Staroverov, T. A. Keith, R. Kobayashi, J. Normand, 
 K. Raghavachari, A. P. Rendell, J. C. Burant, S. S. Iyengar, 
 J. Tomasi, M. Cossi, J. M. Millam, M. Klene, C. Adamo, R. Cammi, 
 J. W. Ochterski, R. L. Martin, K. Morokuma, O. Farkas, 
 J. B. Foresman, and D. J. Fox, Gaussian, Inc., Wallingford CT, 2016.
 
 ******************************************
 Gaussian 16:  EM64L-G16RevB.01 20-Dec-2017
                25-Jul-2023 
 ******************************************
 %mem=3200mb
 %NProcShared=8
 Will use up to    8 processors via shared memory.
 %chk=acid-1-new.chk
 ----------------------------------------------------------------
 # opt freq B3LYP/6-311+G(2d,p) scf=xqc out=wfn geom=connectivity
 ----------------------------------------------------------------
 1/18=20,19=15,26=3,38=1,57=2/1,3;
 2/9=110,12=2,17=6,18=5,40=1/2;
 3/5=4,6=6,7=112,11=2,25=1,30=1,71=1,74=-5/1,2,3;
 4//1;
 5/5=2,8=3,13=1,38=5/2,8;
 6/7=2,8=2,9=2,10=2,28=1/1;
 7//1,2,3,16;
 1/18=20,19=15,26=3/3(2);
 2/9=110/2;
 99/6=100/99;
 2/9=110/2;
 3/5=4,6=6,7=112,11=2,25=1,30=1,71=1,74=-5/1,2,3;
 4/5=5,16=3,69=1/1;
 5/5=2,8=3,13=1,38=5/2,8;
 7//1,2,3,16;
 1/18=20,19=15,26=3/3(-5);
 2/9=110/2;
 6/7=2,8=2,9=2,10=2,19=2,28=1/1;
 99/6=100,9=1/99;
 -------------------
 Title Card Required
 -------------------
 Symbolic Z-matrix:
 Charge =  0 Multiplicity = 1
 C                    -0.42069   0.9222   -0.008 
 C                    -1.80949   1.05522  -0.00759 
 C                    -2.619    -0.08048   0.00164 
 C                    -2.03975  -1.34998   0.00926 
 C                    -0.65127  -1.4829    0.00837 
 C                     0.15835  -0.34674   0.00014 
 H                    -2.26568   2.05577  -0.01322 
 H                    -3.71368   0.02429   0.0026 
 H                    -2.67822  -2.2453    0.01647 
 H                    -0.19445  -2.48328   0.01437 
 C                     1.6913   -0.49383  -0.00057 
 O                     2.21808  -1.63644  -0.0233 
 O                     2.519     0.67201   0.0247 
 H                     1.96615   1.45669   0.04002 
 O                     0.40907   2.08681  -0.01687 
 H                    -0.13998   2.87194   0.04405 
 

 GradGradGradGradGradGradGradGradGradGradGradGradGradGradGradGradGradGrad
 Berny optimization.
 Initialization pass.
                           ----------------------------
                           !    Initial Parameters    !
                           ! (Angstroms and Degrees)  !
 --------------------------                            --------------------------
 ! Name  Definition              Value          Derivative Info.                !
 --------------------------------------------------------------------------------
 ! R1    R(1,2)                  1.3952         estimate D2E/DX2                !
 ! R2    R(1,6)                  1.3948         estimate D2E/DX2                !
 ! R3    R(1,15)                 1.43           estimate D2E/DX2                !
 ! R4    R(2,3)                  1.3947         estimate D2E/DX2                !
 ! R5    R(2,7)                  1.0997         estimate D2E/DX2                !
 ! R6    R(3,4)                  1.3954         estimate D2E/DX2                !
 ! R7    R(3,8)                  1.0997         estimate D2E/DX2                !
 ! R8    R(4,5)                  1.3948         estimate D2E/DX2                !
 ! R9    R(4,9)                  1.0997         estimate D2E/DX2                !
 ! R10   R(5,6)                  1.3951         estimate D2E/DX2                !
 ! R11   R(5,10)                 1.0998         estimate D2E/DX2                !
 ! R12   R(6,11)                 1.54           estimate D2E/DX2                !
 ! R13   R(11,12)                1.2584         estimate D2E/DX2                !
 ! R14   R(11,13)                1.43           estimate D2E/DX2                !
 ! R15   R(13,14)                0.96           estimate D2E/DX2                !
 ! R16   R(15,16)                0.96           estimate D2E/DX2                !
 ! A1    A(2,1,6)              119.9985         estimate D2E/DX2                !
 ! A2    A(2,1,15)             119.9972         estimate D2E/DX2                !
 ! A3    A(6,1,15)             120.0043         estimate D2E/DX2                !
 ! A4    A(1,2,3)              120.0086         estimate D2E/DX2                !
 ! A5    A(1,2,7)              119.9808         estimate D2E/DX2                !
 ! A6    A(3,2,7)              120.0106         estimate D2E/DX2                !
 ! A7    A(2,3,4)              119.9941         estimate D2E/DX2                !
 ! A8    A(2,3,8)              120.0128         estimate D2E/DX2                !
 ! A9    A(4,3,8)              119.993          estimate D2E/DX2                !
 ! A10   A(3,4,5)              119.994          estimate D2E/DX2                !
 ! A11   A(3,4,9)              119.9811         estimate D2E/DX2                !
 ! A12   A(5,4,9)              120.0248         estimate D2E/DX2                !
 ! A13   A(4,5,6)              120.0047         estimate D2E/DX2                !
 ! A14   A(4,5,10)             120.0114         estimate D2E/DX2                !
 ! A15   A(6,5,10)             119.9839         estimate D2E/DX2                !
 ! A16   A(1,6,5)              120.0            estimate D2E/DX2                !
 ! A17   A(1,6,11)             120.008          estimate D2E/DX2                !
 ! A18   A(5,6,11)             119.992          estimate D2E/DX2                !
 ! A19   A(6,11,12)            120.2269         estimate D2E/DX2                !
 ! A20   A(6,11,13)            119.8866         estimate D2E/DX2                !
 ! A21   A(12,11,13)           119.8865         estimate D2E/DX2                !
 ! A22   A(11,13,14)           109.4712         estimate D2E/DX2                !
 ! A23   A(1,15,16)            109.5            estimate D2E/DX2                !
 ! D1    D(6,1,2,3)              0.0323         estimate D2E/DX2                !
 ! D2    D(6,1,2,7)            179.9533         estimate D2E/DX2                !
 ! D3    D(15,1,2,3)          -179.973          estimate D2E/DX2                !
 ! D4    D(15,1,2,7)            -0.052          estimate D2E/DX2                !
 ! D5    D(2,1,6,5)              0.0149         estimate D2E/DX2                !
 ! D6    D(2,1,6,11)           179.9892         estimate D2E/DX2                !
 ! D7    D(15,1,6,5)          -179.9798         estimate D2E/DX2                !
 ! D8    D(15,1,6,11)           -0.0055         estimate D2E/DX2                !
 ! D9    D(2,1,15,16)            4.1722         estimate D2E/DX2                !
 ! D10   D(6,1,15,16)         -175.8331         estimate D2E/DX2                !
 ! D11   D(1,2,3,4)             -0.0568         estimate D2E/DX2                !
 ! D12   D(1,2,3,8)            179.9619         estimate D2E/DX2                !
 ! D13   D(7,2,3,4)           -179.9778         estimate D2E/DX2                !
 ! D14   D(7,2,3,8)              0.0409         estimate D2E/DX2                !
 ! D15   D(2,3,4,5)              0.0341         estimate D2E/DX2                !
 ! D16   D(2,3,4,9)           -179.9965         estimate D2E/DX2                !
 ! D17   D(8,3,4,5)           -179.9846         estimate D2E/DX2                !
 ! D18   D(8,3,4,9)             -0.0151         estimate D2E/DX2                !
 ! D19   D(3,4,5,6)              0.0131         estimate D2E/DX2                !
 ! D20   D(3,4,5,10)          -179.9996         estimate D2E/DX2                !
 ! D21   D(9,4,5,6)           -179.9563         estimate D2E/DX2                !
 ! D22   D(9,4,5,10)             0.031          estimate D2E/DX2                !
 ! D23   D(4,5,6,1)             -0.0376         estimate D2E/DX2                !
 ! D24   D(4,5,6,11)           179.9881         estimate D2E/DX2                !
 ! D25   D(10,5,6,1)           179.9751         estimate D2E/DX2                !
 ! D26   D(10,5,6,11)            0.0007         estimate D2E/DX2                !
 ! D27   D(1,6,11,12)         -178.4164         estimate D2E/DX2                !
 ! D28   D(1,6,11,13)            1.5835         estimate D2E/DX2                !
 ! D29   D(5,6,11,12)            1.558          estimate D2E/DX2                !
 ! D30   D(5,6,11,13)         -178.4421         estimate D2E/DX2                !
 ! D31   D(6,11,13,14)           0.0001         estimate D2E/DX2                !
 ! D32   D(12,11,13,14)        180.0            estimate D2E/DX2                !
 --------------------------------------------------------------------------------
 Trust Radius=3.00D-01 FncErr=1.00D-07 GrdErr=1.00D-06 EigMax=2.50D+02 EigMin=1.00D-04
 Number of steps in this run=     81 maximum allowed number of steps=    100.
 GradGradGradGradGradGradGradGradGradGradGradGradGradGradGradGradGradGrad

                          Input orientation:                          
 ---------------------------------------------------------------------
 Center     Atomic      Atomic             Coordinates (Angstroms)
 Number     Number       Type             X           Y           Z
 ---------------------------------------------------------------------
      1          6           0       -0.420688    0.922198   -0.007997
      2          6           0       -1.809492    1.055223   -0.007585
      3          6           0       -2.619002   -0.080484    0.001640
      4          6           0       -2.039749   -1.349982    0.009260
      5          6           0       -0.651272   -1.482901    0.008369
      6          6           0        0.158345   -0.346740    0.000136
      7          1           0       -2.265680    2.055774   -0.013222
      8          1           0       -3.713679    0.024292    0.002599
      9          1           0       -2.678222   -2.245302    0.016474
     10          1           0       -0.194450   -2.483277    0.014366
     11          6           0        1.691304   -0.493831   -0.000568
     12          8           0        2.218078   -1.636443   -0.023300
     13          8           0        2.519000    0.672008    0.024695
     14          1           0        1.966146    1.456685    0.040016
     15          8           0        0.409072    2.086809   -0.016872
     16          1           0       -0.139980    2.871940    0.044049
 ---------------------------------------------------------------------
                    Distance matrix (angstroms):
                    1          2          3          4          5
     1  C    0.000000
     2  C    1.395160   0.000000
     3  C    2.416205   1.394712   0.000000
     4  C    2.790064   2.416260   1.395427   0.000000
     5  C    2.416183   2.789947   2.416357   1.394825   0.000000
     6  C    1.394829   2.416183   2.790081   2.416236   1.395138
     7  H    2.165414   1.099655   2.165330   3.413316   3.889602
     8  H    3.413230   2.165375   1.099680   2.165806   3.413210
     9  H    3.889745   3.413024   2.165679   1.099681   2.165606
    10  H    3.413055   3.889708   3.413507   2.165528   1.099761
    11  C    2.542775   3.828210   4.330081   3.828034   2.542833
    12  O    3.675590   4.844237   5.081237   4.267577   2.873630
    13  O    2.950496   4.345542   5.192864   4.987071   3.833344
    14  H    2.446417   3.797220   4.836108   4.891372   3.936120
    15  O    1.430000   2.446688   3.723806   4.220064   3.723949
    16  H    1.970533   2.467873   3.855406   4.629790   4.384898
                    6          7          8          9         10
     6  C    0.000000
     7  H    3.412938   0.000000
     8  H    3.889761   2.494769   0.000000
     9  H    3.413344   4.320917   2.494678   0.000000
    10  H    2.165515   4.989363   4.321228   2.495147   0.000000
    11  C    1.540000   4.707268   5.429761   4.707515   2.741202
    12  O    2.430305   5.808326   6.159907   4.934171   2.557115
    13  O    2.571214   4.980904   6.266284   5.960024   4.161579
    14  H    2.553836   4.274353   5.857778   5.939311   4.493566
    15  O    2.446490   2.674935   4.609927   5.319745   4.609870
    16  H    3.232774   2.277720   4.569698   5.712232   5.355576
                   11         12         13         14         15
    11  C    0.000000
    12  O    1.258400   0.000000
    13  O    1.430000   2.328477   0.000000
    14  H    1.970202   3.104017   0.960000   0.000000
    15  O    2.881681   4.139462   2.540706   1.680706   0.000000
    16  H    3.831972   5.088270   3.451123   2.537465   0.960000
                   16
    16  H    0.000000
 Stoichiometry    C7H6O3
 Framework group  C1[X(C7H6O3)]
 Deg. of freedom    42
 Full point group                 C1      NOp   1
 Largest Abelian subgroup         C1      NOp   1
 Largest concise Abelian subgroup C1      NOp   1
                         Standard orientation:                         
 ---------------------------------------------------------------------
 Center     Atomic      Atomic             Coordinates (Angstroms)
 Number     Number       Type             X           Y           Z
 ---------------------------------------------------------------------
      1          6           0       -0.420688    0.922198   -0.007997
      2          6           0       -1.809492    1.055223   -0.007585
      3          6           0       -2.619002   -0.080484    0.001640
      4          6           0       -2.039749   -1.349982    0.009260
      5          6           0       -0.651272   -1.482901    0.008369
      6          6           0        0.158345   -0.346740    0.000136
      7          1           0       -2.265680    2.055774   -0.013222
      8          1           0       -3.713679    0.024292    0.002599
      9          1           0       -2.678222   -2.245302    0.016474
     10          1           0       -0.194450   -2.483277    0.014366
     11          6           0        1.691304   -0.493831   -0.000568
     12          8           0        2.218078   -1.636443   -0.023300
     13          8           0        2.519000    0.672008    0.024695
     14          1           0        1.966146    1.456685    0.040016
     15          8           0        0.409072    2.086809   -0.016872
     16          1           0       -0.139980    2.871940    0.044049
 ---------------------------------------------------------------------
 Rotational constants (GHZ):           2.2773263           1.1856393           0.7797772
 Standard basis: 6-311+G(2d,p) (5D, 7F)
 There are   326 symmetry adapted cartesian basis functions of A   symmetry.
 There are   306 symmetry adapted basis functions of A   symmetry.
   306 basis functions,   468 primitive gaussians,   326 cartesian basis functions
    36 alpha electrons       36 beta electrons
       nuclear repulsion energy       495.2133831185 Hartrees.
 NAtoms=   16 NActive=   16 NUniq=   16 SFac= 1.00D+00 NAtFMM=   60 NAOKFM=F Big=F
 Integral buffers will be    131072 words long.
 Raffenetti 2 integral format.
 Two-electron integral symmetry is turned on.
 One-electron integrals computed using PRISM.
 NBasis=   306 RedAO= T EigKep=  2.36D-06  NBF=   306
 NBsUse=   306 1.00D-06 EigRej= -1.00D+00 NBFU=   306
 ExpMin= 4.38D-02 ExpMax= 8.59D+03 ExpMxC= 1.30D+03 IAcc=3 IRadAn=         5 AccDes= 0.00D+00
 Harris functional with IExCor=  402 and IRadAn=       5 diagonalized for initial guess.
 HarFok:  IExCor=  402 AccDes= 0.00D+00 IRadAn=         5 IDoV= 1 UseB2=F ITyADJ=14
 ICtDFT=  3500011 ScaDFX=  1.000000  1.000000  1.000000  1.000000
 FoFCou: FMM=F IPFlag=           0 FMFlag=      100000 FMFlg1=           0
         NFxFlg=           0 DoJE=T BraDBF=F KetDBF=T FulRan=T
         wScrn=  0.000000 ICntrl=       500 IOpCl=  0 I1Cent=   200000004 NGrid=           0
         NMat0=    1 NMatS0=      1 NMatT0=    0 NMatD0=    1 NMtDS0=    0 NMtDT0=    0
 Petite list used in FoFCou.
 Requested convergence on RMS density matrix=1.00D-08 within  32 cycles.
 Requested convergence on MAX density matrix=1.00D-06.
 Requested convergence on             energy=1.00D-06.
 No special actions if energy rises.
 SCF Done:  E(RB3LYP) =  -496.187412031     A.U. after   14 cycles
            NFock= 14  Conv=0.50D-08     -V/T= 2.0049
 QCSCF skips out because SCF is already converged.

 **********************************************************************

            Population analysis using the SCF Density.

 **********************************************************************

 Orbital symmetries:
       Occupied  (A) (A) (A) (A) (A) (A) (A) (A) (A) (A) (A) (A)
                 (A) (A) (A) (A) (A) (A) (A) (A) (A) (A) (A) (A)
                 (A) (A) (A) (A) (A) (A) (A) (A) (A) (A) (A) (A)
       Virtual   (A) (A) (A) (A) (A) (A) (A) (A) (A) (A) (A) (A)
                 (A) (A) (A) (A) (A) (A) (A) (A) (A) (A) (A) (A)
                 (A) (A) (A) (A) (A) (A) (A) (A) (A) (A) (A) (A)
                 (A) (A) (A) (A) (A) (A) (A) (A) (A) (A) (A) (A)
                 (A) (A) (A) (A) (A) (A) (A) (A) (A) (A) (A) (A)
                 (A) (A) (A) (A) (A) (A) (A) (A) (A) (A) (A) (A)
                 (A) (A) (A) (A) (A) (A) (A) (A) (A) (A) (A) (A)
                 (A) (A) (A) (A) (A) (A) (A) (A) (A) (A) (A) (A)
                 (A) (A) (A) (A) (A) (A) (A) (A) (A) (A) (A) (A)
                 (A) (A) (A) (A) (A) (A) (A) (A) (A) (A) (A) (A)
                 (A) (A) (A) (A) (A) (A) (A) (A) (A) (A) (A) (A)
                 (A) (A) (A) (A) (A) (A) (A) (A) (A) (A) (A) (A)
                 (A) (A) (A) (A) (A) (A) (A) (A) (A) (A) (A) (A)
                 (A) (A) (A) (A) (A) (A) (A) (A) (A) (A) (A) (A)
                 (A) (A) (A) (A) (A) (A) (A) (A) (A) (A) (A) (A)
                 (A) (A) (A) (A) (A) (A) (A) (A) (A) (A) (A) (A)
                 (A) (A) (A) (A) (A) (A) (A) (A) (A) (A) (A) (A)
                 (A) (A) (A) (A) (A) (A) (A) (A) (A) (A) (A) (A)
                 (A) (A) (A) (A) (A) (A) (A) (A) (A) (A) (A) (A)
                 (A) (A) (A) (A) (A) (A) (A) (A) (A) (A) (A) (A)
                 (A) (A) (A) (A) (A) (A) (A) (A) (A) (A) (A) (A)
                 (A) (A) (A) (A) (A) (A) (A) (A) (A) (A) (A) (A)
                 (A) (A) (A) (A) (A) (A)
 The electronic state is 1-A.
 Alpha  occ. eigenvalues --  -19.20260 -19.15640 -19.11416 -10.32220 -10.27998
 Alpha  occ. eigenvalues --  -10.22213 -10.21363 -10.21273 -10.20900 -10.20181
 Alpha  occ. eigenvalues --   -1.10026  -1.06544  -1.00029  -0.89168  -0.79293
 Alpha  occ. eigenvalues --   -0.77783  -0.66494  -0.65454  -0.61085  -0.58603
 Alpha  occ. eigenvalues --   -0.54218  -0.51593  -0.49608  -0.46466  -0.45619
 Alpha  occ. eigenvalues --   -0.44519  -0.43722  -0.41554  -0.41448  -0.38894
 Alpha  occ. eigenvalues --   -0.37745  -0.36307  -0.31582  -0.28744  -0.28132
 Alpha  occ. eigenvalues --   -0.27168
 Alpha virt. eigenvalues --   -0.07362  -0.03844  -0.02724  -0.00451   0.01387
 Alpha virt. eigenvalues --    0.01681   0.03141   0.03564   0.04327   0.04975
 Alpha virt. eigenvalues --    0.06928   0.07273   0.07512   0.07682   0.09908
 Alpha virt. eigenvalues --    0.10631   0.11309   0.11713   0.12194   0.12602
 Alpha virt. eigenvalues --    0.13031   0.13208   0.14439   0.15275   0.15435
 Alpha virt. eigenvalues --    0.16344   0.17559   0.17803   0.18323   0.18713
 Alpha virt. eigenvalues --    0.19377   0.19735   0.20673   0.21442   0.21943
 Alpha virt. eigenvalues --    0.23251   0.23848   0.24153   0.24555   0.24853
 Alpha virt. eigenvalues --    0.25522   0.26186   0.26778   0.28255   0.28898
 Alpha virt. eigenvalues --    0.29945   0.30437   0.30573   0.31290   0.32056
 Alpha virt. eigenvalues --    0.32391   0.34708   0.36010   0.37965   0.39165
 Alpha virt. eigenvalues --    0.41983   0.43436   0.44827   0.45701   0.47171
 Alpha virt. eigenvalues --    0.48758   0.49241   0.49598   0.50288   0.51883
 Alpha virt. eigenvalues --    0.52906   0.54911   0.56278   0.56509   0.57361
 Alpha virt. eigenvalues --    0.59069   0.59408   0.59940   0.60368   0.61053
 Alpha virt. eigenvalues --    0.62951   0.63420   0.66037   0.67082   0.67515
 Alpha virt. eigenvalues --    0.67909   0.69379   0.71370   0.73177   0.74040
 Alpha virt. eigenvalues --    0.75438   0.76158   0.77669   0.77828   0.79524
 Alpha virt. eigenvalues --    0.79676   0.81536   0.81601   0.83013   0.85307
 Alpha virt. eigenvalues --    0.89757   0.90174   0.94216   0.95807   0.97220
 Alpha virt. eigenvalues --    0.97897   1.00731   1.02233   1.04803   1.05592
 Alpha virt. eigenvalues --    1.07236   1.08291   1.09053   1.12265   1.13758
 Alpha virt. eigenvalues --    1.13919   1.16086   1.16362   1.18133   1.20595
 Alpha virt. eigenvalues --    1.22162   1.22923   1.24974   1.25840   1.27531
 Alpha virt. eigenvalues --    1.29401   1.30398   1.31237   1.31538   1.32243
 Alpha virt. eigenvalues --    1.36093   1.36446   1.38773   1.42093   1.45487
 Alpha virt. eigenvalues --    1.47488   1.49019   1.52021   1.54493   1.55603
 Alpha virt. eigenvalues --    1.56717   1.57435   1.61123   1.61812   1.64261
 Alpha virt. eigenvalues --    1.64979   1.67973   1.71278   1.74844   1.76664
 Alpha virt. eigenvalues --    1.81778   1.83896   1.84418   1.88556   1.90533
 Alpha virt. eigenvalues --    1.92572   1.94662   2.03121   2.03768   2.06762
 Alpha virt. eigenvalues --    2.08470   2.14219   2.17334   2.22724   2.25652
 Alpha virt. eigenvalues --    2.29806   2.31516   2.32251   2.46553   2.48349
 Alpha virt. eigenvalues --    2.55385   2.58691   2.60376   2.61499   2.62423
 Alpha virt. eigenvalues --    2.64827   2.68369   2.69331   2.71646   2.73281
 Alpha virt. eigenvalues --    2.75030   2.76606   2.77187   2.80468   2.81285
 Alpha virt. eigenvalues --    2.85384   2.88107   2.89155   2.94332   3.03615
 Alpha virt. eigenvalues --    3.05055   3.08631   3.09880   3.10252   3.10604
 Alpha virt. eigenvalues --    3.16777   3.18086   3.24088   3.26096   3.27037
 Alpha virt. eigenvalues --    3.27969   3.31151   3.31816   3.32189   3.37395
 Alpha virt. eigenvalues --    3.39391   3.40062   3.42633   3.42892   3.49069
 Alpha virt. eigenvalues --    3.49709   3.51871   3.54828   3.55385   3.56185
 Alpha virt. eigenvalues --    3.57634   3.58126   3.59228   3.64024   3.67847
 Alpha virt. eigenvalues --    3.68226   3.73174   3.74299   3.74630   3.76660
 Alpha virt. eigenvalues --    3.81401   3.82857   3.89090   3.91017   3.93060
 Alpha virt. eigenvalues --    3.97720   4.01305   4.01704   4.11058   4.13916
 Alpha virt. eigenvalues --    4.40239   4.48229   4.59419   4.74209   4.78703
 Alpha virt. eigenvalues --    4.95743   4.98302   5.04976   5.23195   5.27909
 Alpha virt. eigenvalues --    5.44342   5.52685   5.79012   5.86238   6.01317
 Alpha virt. eigenvalues --    6.75930   6.78545   6.82913   6.87212   6.88510
 Alpha virt. eigenvalues --    6.95828   7.01122   7.03362   7.04974   7.12691
 Alpha virt. eigenvalues --    7.24941   7.27915   7.31158   7.40734   7.50355
 Alpha virt. eigenvalues --   23.61360  23.87063  23.96220  24.00668  24.06052
 Alpha virt. eigenvalues --   24.12949  24.14607  49.93775  49.96926  50.03925
          Condensed to atoms (all electrons):
               1          2          3          4          5          6
     1  C   10.397332  -1.540146   0.159469  -0.248325  -1.193940  -1.122372
     2  C   -1.540146   7.838067   0.153462   0.367427  -1.153614   0.046209
     3  C    0.159469   0.153462   5.546716   0.167891   0.664397  -0.861959
     4  C   -0.248325   0.367427   0.167891   6.653419  -1.574053   0.355302
     5  C   -1.193940  -1.153614   0.664397  -1.574053  10.346697  -1.037656
     6  C   -1.122372   0.046209  -0.861959   0.355302  -1.037656   7.834603
     7  H   -0.203330   0.542385  -0.012745   0.035845  -0.027220  -0.005567
     8  H    0.026893  -0.052265   0.404173  -0.052587   0.010487   0.000549
     9  H   -0.015105   0.033216  -0.079582   0.433329  -0.070706   0.036110
    10  H    0.012939  -0.006952   0.029030  -0.068769   0.426529  -0.046808
    11  C   -0.239554  -0.142878   0.020185  -0.116434   0.339810  -0.111764
    12  O   -0.005716   0.011437  -0.003173   0.112835  -0.133114  -0.028856
    13  O   -0.228646  -0.021066  -0.004978   0.015399   0.095151   0.136297
    14  H    0.052082   0.098677   0.007902  -0.013757  -0.027718  -0.094538
    15  O    0.344392  -0.155586   0.036759  -0.006780  -0.007086  -0.134025
    16  H    0.052580  -0.044738  -0.010676   0.001062  -0.024611   0.012902
               7          8          9         10         11         12
     1  C   -0.203330   0.026893  -0.015105   0.012939  -0.239554  -0.005716
     2  C    0.542385  -0.052265   0.033216  -0.006952  -0.142878   0.011437
     3  C   -0.012745   0.404173  -0.079582   0.029030   0.020185  -0.003173
     4  C    0.035845  -0.052587   0.433329  -0.068769  -0.116434   0.112835
     5  C   -0.027220   0.010487  -0.070706   0.426529   0.339810  -0.133114
     6  C   -0.005567   0.000549   0.036110  -0.046808  -0.111764  -0.028856
     7  H    0.591813  -0.005969  -0.000371   0.000074   0.002638   0.000012
     8  H   -0.005969   0.573790  -0.005318  -0.000342   0.000140   0.000008
     9  H   -0.000371  -0.005318   0.572016  -0.004851   0.001882   0.000018
    10  H    0.000074  -0.000342  -0.004851   0.515951  -0.008576   0.008826
    11  C    0.002638   0.000140   0.001882  -0.008576   5.204403   0.401462
    12  O    0.000012   0.000008   0.000018   0.008826   0.401462   8.161072
    13  O   -0.000057   0.000003   0.000021   0.000513   0.197902  -0.042786
    14  H    0.000270  -0.000005  -0.000002  -0.000129   0.007847   0.008297
    15  O   -0.009712  -0.000512   0.000160  -0.000003  -0.096634  -0.002092
    16  H    0.010108  -0.000056  -0.000007   0.000048   0.018371  -0.000346
              13         14         15         16
     1  C   -0.228646   0.052082   0.344392   0.052580
     2  C   -0.021066   0.098677  -0.155586  -0.044738
     3  C   -0.004978   0.007902   0.036759  -0.010676
     4  C    0.015399  -0.013757  -0.006780   0.001062
     5  C    0.095151  -0.027718  -0.007086  -0.024611
     6  C    0.136297  -0.094538  -0.134025   0.012902
     7  H   -0.000057   0.000270  -0.009712   0.010108
     8  H    0.000003  -0.000005  -0.000512  -0.000056
     9  H    0.000021  -0.000002   0.000160  -0.000007
    10  H    0.000513  -0.000129  -0.000003   0.000048
    11  C    0.197902   0.007847  -0.096634   0.018371
    12  O   -0.042786   0.008297  -0.002092  -0.000346
    13  O    8.029041   0.247859   0.031210   0.004624
    14  H    0.247859   0.377903  -0.025270   0.001963
    15  O    0.031210  -0.025270   8.330274   0.229244
    16  H    0.004624   0.001963   0.229244   0.458550
 Mulliken charges:
               1
     1  C   -0.248554
     2  C    0.026366
     3  C   -0.216872
     4  C   -0.061804
     5  C   -0.633352
     6  C    1.021573
     7  H    0.081825
     8  H    0.101011
     9  H    0.099190
    10  H    0.142521
    11  C    0.521201
    12  O   -0.487883
    13  O   -0.460485
    14  H    0.358619
    15  O   -0.534339
    16  H    0.290982
 Sum of Mulliken charges =   0.00000
 Mulliken charges with hydrogens summed into heavy atoms:
               1
     1  C   -0.248554
     2  C    0.108192
     3  C   -0.115861
     4  C    0.037386
     5  C   -0.490830
     6  C    1.021573
    11  C    0.521201
    12  O   -0.487883
    13  O   -0.101866
    15  O   -0.243357
 Electronic spatial extent (au):  <R**2>=           1386.3890
 Charge=              0.0000 electrons
 Dipole moment (field-independent basis, Debye):
    X=             -6.0106    Y=              3.6007    Z=              0.1532  Tot=              7.0083
 Quadrupole moment (field-independent basis, Debye-Ang):
   XX=            -64.7190   YY=            -48.8258   ZZ=            -60.4769
   XY=              4.0636   XZ=              0.0868   YZ=              0.2633
 Traceless Quadrupole moment (field-independent basis, Debye-Ang):
   XX=             -6.7118   YY=              9.1815   ZZ=             -2.4697
   XY=              4.0636   XZ=              0.0868   YZ=              0.2633
 Octapole moment (field-independent basis, Debye-Ang**2):
  XXX=            -43.0244  YYY=             39.2105  ZZZ=             -0.0453  XYY=            -15.0292
  XXY=             14.2185  XXZ=              0.1121  XZZ=             11.2102  YZZ=              2.7084
  YYZ=              1.3662  XYZ=              0.0087
 Hexadecapole moment (field-independent basis, Debye-Ang**3):
 XXXX=          -1159.5531 YYYY=           -486.0162 ZZZZ=            -64.9009 XXXY=             31.6099
 XXXZ=              0.0502 YYYX=             17.3702 YYYZ=              2.8145 ZZZX=              0.0457
 ZZZY=              0.3381 XXYY=           -291.6610 XXZZ=           -212.2159 YYZZ=           -118.5089
 XXYZ=             -0.3590 YYXZ=              0.5548 ZZXY=             -2.6341
 N-N= 4.952133831185D+02 E-N=-2.150711042230D+03  KE= 4.937572845448D+02
 Calling FoFJK, ICntrl=      2127 FMM=F ISym2X=0 I1Cent= 0 IOpClX= 0 NMat=1 NMatS=1 NMatT=0.
 ***** Axes restored to original set *****
 -------------------------------------------------------------------
 Center     Atomic                   Forces (Hartrees/Bohr)
 Number     Number              X              Y              Z
 -------------------------------------------------------------------
      1        6          -0.002933633    0.021476703    0.000466295
      2        6          -0.003578046    0.007062045    0.000022721
      3        6          -0.003520895    0.001371177    0.000010025
      4        6          -0.001616887   -0.007132269    0.000077273
      5        6          -0.005475479   -0.007733717   -0.000157262
      6        6           0.038392340    0.013044449    0.000048409
      7        1           0.003942799   -0.008380946   -0.000074593
      8        1           0.010976404    0.000037406   -0.000014204
      9        1           0.006842626    0.008874214   -0.000075595
     10        1          -0.001193545    0.012751478   -0.000099527
     11        6           0.039812077   -0.040342029   -0.000721390
     12        8          -0.030262619    0.075981867    0.001635707
     13        8          -0.020134028   -0.061049457   -0.000982799
     14        1          -0.008016617    0.008513749    0.000234055
     15        8          -0.020244881   -0.027221284   -0.000797449
     16        1          -0.002989616    0.002746613    0.000428332
 -------------------------------------------------------------------
 Cartesian Forces:  Max     0.075981867 RMS     0.019457988

 GradGradGradGradGradGradGradGradGradGradGradGradGradGradGradGradGradGrad
 Berny optimization.
 FormGI is forming the generalized inverse of G from B-inverse, IUseBI=4.
 Internal  Forces:  Max     0.081688285 RMS     0.014510360
 Search for a local minimum.
 Step number   1 out of a maximum of   81
 All quantities printed in internal units (Hartrees-Bohrs-Radians)
 Mixed Optimization -- RFO/linear search
 Second derivative matrix not updated -- first step.
 ITU=  0
     Eigenvalues ---    0.00237   0.00588   0.01295   0.01295   0.01565
     Eigenvalues ---    0.01999   0.02152   0.02153   0.02154   0.02155
     Eigenvalues ---    0.02155   0.02156   0.02157   0.16000   0.16000
     Eigenvalues ---    0.16000   0.16000   0.16000   0.16000   0.22000
     Eigenvalues ---    0.22493   0.24488   0.25000   0.25000   0.25000
     Eigenvalues ---    0.25000   0.28519   0.33709   0.33717   0.33718
     Eigenvalues ---    0.33720   0.40989   0.40989   0.42224   0.42380
     Eigenvalues ---    0.46412   0.46453   0.46466   0.46497   0.55473
     Eigenvalues ---    0.55473   0.80209
 RFO step:  Lambda=-3.04483819D-02 EMin= 2.36826128D-03
 Linear search not attempted -- first point.
 Iteration  1 RMS(Cart)=  0.10393578 RMS(Int)=  0.00311880
 Iteration  2 RMS(Cart)=  0.00548186 RMS(Int)=  0.00004321
 Iteration  3 RMS(Cart)=  0.00001485 RMS(Int)=  0.00004246
 Iteration  4 RMS(Cart)=  0.00000000 RMS(Int)=  0.00004246
 Variable       Old X    -DE/DX   Delta X   Delta X   Delta X     New X
                                 (Linear)    (Quad)   (Total)
    R1        2.63647  -0.00525   0.00000  -0.01001  -0.01004   2.62643
    R2        2.63585   0.00997   0.00000   0.02115   0.02119   2.65704
    R3        2.70231  -0.03341   0.00000  -0.07588  -0.07588   2.62643
    R4        2.63562  -0.00794   0.00000  -0.01645  -0.01653   2.61910
    R5        2.07805  -0.00926   0.00000  -0.02519  -0.02519   2.05286
    R6        2.63698  -0.00500   0.00000  -0.01114  -0.01118   2.62580
    R7        2.07809  -0.01092   0.00000  -0.02971  -0.02971   2.04838
    R8        2.63584  -0.00756   0.00000  -0.01587  -0.01584   2.62000
    R9        2.07810  -0.01120   0.00000  -0.03046  -0.03046   2.04763
   R10        2.63643  -0.00220   0.00000  -0.00402  -0.00395   2.63248
   R11        2.07825  -0.01210   0.00000  -0.03291  -0.03291   2.04534
   R12        2.91018  -0.01690   0.00000  -0.05355  -0.05355   2.85663
   R13        2.37803  -0.08169   0.00000  -0.09812  -0.09812   2.27991
   R14        2.70231  -0.05914   0.00000  -0.13430  -0.13430   2.56801
   R15        1.81414   0.01158   0.00000   0.01979   0.01979   1.83392
   R16        1.81414   0.00398   0.00000   0.00681   0.00681   1.82094
    A1        2.09437   0.00420   0.00000   0.01749   0.01750   2.11186
    A2        2.09435  -0.00927   0.00000  -0.03433  -0.03434   2.06001
    A3        2.09447   0.00508   0.00000   0.01684   0.01683   2.11130
    A4        2.09455  -0.00014   0.00000  -0.00065  -0.00076   2.09379
    A5        2.09406  -0.00004   0.00000  -0.00028  -0.00023   2.09383
    A6        2.09458   0.00019   0.00000   0.00093   0.00099   2.09557
    A7        2.09429   0.00063   0.00000  -0.00084  -0.00096   2.09333
    A8        2.09462  -0.00144   0.00000  -0.00549  -0.00543   2.08919
    A9        2.09427   0.00081   0.00000   0.00633   0.00639   2.10066
   A10        2.09429   0.00011   0.00000  -0.00327  -0.00328   2.09101
   A11        2.09407   0.00038   0.00000   0.00392   0.00392   2.09799
   A12        2.09483  -0.00049   0.00000  -0.00065  -0.00064   2.09418
   A13        2.09448   0.00697   0.00000   0.02703   0.02714   2.12162
   A14        2.09459   0.00089   0.00000   0.00946   0.00941   2.10400
   A15        2.09411  -0.00786   0.00000  -0.03649  -0.03655   2.05757
   A16        2.09440  -0.01177   0.00000  -0.03976  -0.03964   2.05476
   A17        2.09453   0.03638   0.00000   0.12861   0.12855   2.22309
   A18        2.09426  -0.02461   0.00000  -0.08885  -0.08891   2.00534
   A19        2.09836   0.00115   0.00000   0.00409   0.00408   2.10243
   A20        2.09242   0.00800   0.00000   0.02854   0.02853   2.12094
   A21        2.09241  -0.00915   0.00000  -0.03263  -0.03264   2.05977
   A22        1.91063  -0.00299   0.00000  -0.01571  -0.01571   1.89492
   A23        1.91114  -0.00160   0.00000  -0.00839  -0.00839   1.90275
    D1        0.00056   0.00001   0.00000   0.00021   0.00019   0.00075
    D2        3.14078   0.00011   0.00000   0.00216   0.00214  -3.14027
    D3       -3.14112  -0.00025   0.00000  -0.00478  -0.00475   3.13732
    D4       -0.00091  -0.00014   0.00000  -0.00283  -0.00280  -0.00370
    D5        0.00026   0.00008   0.00000   0.00142   0.00140   0.00166
    D6        3.14140   0.00004   0.00000   0.00072   0.00066  -3.14112
    D7       -3.14124   0.00033   0.00000   0.00641   0.00648  -3.13476
    D8       -0.00010   0.00029   0.00000   0.00571   0.00574   0.00565
    D9        0.07282   0.00025   0.00000   0.00546   0.00543   0.07824
   D10       -3.06887   0.00000   0.00000   0.00047   0.00050  -3.06837
   D11       -0.00099  -0.00006   0.00000  -0.00121  -0.00119  -0.00218
   D12        3.14093   0.00001   0.00000   0.00023   0.00023   3.14116
   D13       -3.14120  -0.00016   0.00000  -0.00315  -0.00314   3.13884
   D14        0.00071  -0.00009   0.00000  -0.00172  -0.00172  -0.00100
   D15        0.00060   0.00003   0.00000   0.00056   0.00057   0.00117
   D16       -3.14153   0.00005   0.00000   0.00092   0.00092  -3.14061
   D17       -3.14132  -0.00004   0.00000  -0.00087  -0.00086   3.14100
   D18       -0.00026  -0.00003   0.00000  -0.00052  -0.00052  -0.00078
   D19        0.00023   0.00006   0.00000   0.00109   0.00110   0.00133
   D20       -3.14159  -0.00001   0.00000  -0.00009  -0.00010   3.14150
   D21       -3.14083   0.00004   0.00000   0.00074   0.00075  -3.14008
   D22        0.00054  -0.00002   0.00000  -0.00045  -0.00045   0.00009
   D23       -0.00066  -0.00011   0.00000  -0.00207  -0.00204  -0.00270
   D24        3.14138  -0.00008   0.00000  -0.00143  -0.00146   3.13993
   D25        3.14116  -0.00004   0.00000  -0.00090  -0.00088   3.14028
   D26        0.00001  -0.00002   0.00000  -0.00026  -0.00029  -0.00028
   D27       -3.11395   0.00002   0.00000   0.00092   0.00089  -3.11306
   D28        0.02764   0.00038   0.00000   0.01100   0.01104   0.03868
   D29        0.02719  -0.00002   0.00000   0.00023   0.00019   0.02738
   D30       -3.11440   0.00035   0.00000   0.01031   0.01034  -3.10407
   D31        0.00000  -0.00012   0.00000  -0.00363  -0.00356  -0.00356
   D32        3.14159   0.00024   0.00000   0.00642   0.00635  -3.13525
         Item               Value     Threshold  Converged?
 Maximum Force            0.081688     0.000450     NO 
 RMS     Force            0.014510     0.000300     NO 
 Maximum Displacement     0.378765     0.001800     NO 
 RMS     Displacement     0.101844     0.001200     NO 
 Predicted change in Energy=-1.635297D-02
 GradGradGradGradGradGradGradGradGradGradGradGradGradGradGradGradGradGrad

                          Input orientation:                          
 ---------------------------------------------------------------------
 Center     Atomic      Atomic             Coordinates (Angstroms)
 Number     Number       Type             X           Y           Z
 ---------------------------------------------------------------------
      1          6           0       -0.448401    0.977686   -0.009706
      2          6           0       -1.835104    1.071079   -0.007033
      3          6           0       -2.606453   -0.080352    0.004286
      4          6           0       -1.992032   -1.326624    0.010316
      5          6           0       -0.608274   -1.412803    0.006382
      6          6           0        0.193180   -0.273422   -0.001978
      7          1           0       -2.313290    2.046471   -0.014354
      8          1           0       -3.687610   -0.002539    0.006736
      9          1           0       -2.590883   -2.229630    0.018245
     10          1           0       -0.117107   -2.377275    0.011085
     11          6           0        1.680834   -0.541767   -0.003028
     12          8           0        2.098151   -1.673551   -0.025381
     13          8           0        2.585577    0.471574    0.032654
     14          1           0        2.104975    1.314438    0.053061
     15          8           0        0.285658    2.157751   -0.026411
     16          1           0       -0.319489    2.904933    0.037185
 ---------------------------------------------------------------------
                    Distance matrix (angstroms):
                    1          2          3          4          5
     1  C    0.000000
     2  C    1.389848   0.000000
     3  C    2.403503   1.385965   0.000000
     4  C    2.773634   2.402896   1.389512   0.000000
     5  C    2.395883   2.770372   2.401697   1.386445   0.000000
     6  C    1.406043   2.433444   2.806289   2.425807   1.393050
     7  H    2.149450   1.086326   2.147013   3.388449   3.856693
     8  H    3.384316   2.141174   1.083957   2.151325   3.386909
     9  H    3.857186   3.386226   2.149380   1.083561   2.144314
    10  H    3.371342   3.852660   3.387143   2.149235   1.082346
    11  C    2.615802   3.868218   4.312051   3.755812   2.449246
    12  O    3.676169   4.796230   4.967137   4.105025   2.719142
    13  O    3.076193   4.461323   5.221360   4.918183   3.708403
    14  H    2.576251   3.948045   4.913794   4.874680   3.847304
    15  O    1.389847   2.383037   3.657096   4.162943   3.680903
    16  H    1.932123   2.379509   3.760746   4.550187   4.327492
                    6          7          8          9         10
     6  C    0.000000
     7  H    3.415325   0.000000
     8  H    3.890243   2.467315   0.000000
     9  H    3.402670   4.285226   2.482515   0.000000
    10  H    2.126651   4.938966   4.288109   2.478187   0.000000
    11  C    1.511662   4.759425   5.395466   4.593136   2.569412
    12  O    2.364280   5.770571   6.022320   4.722093   2.324635
    13  O    2.505949   5.146008   6.291131   5.838874   3.926946
    14  H    2.485818   4.479004   5.940591   5.883257   4.309079
    15  O    2.433054   2.601357   4.522700   5.246484   4.553030
    16  H    3.219675   2.171372   4.449558   5.614564   5.286148
                   11         12         13         14         15
    11  C    0.000000
    12  O    1.206477   0.000000
    13  O    1.358931   2.200571   0.000000
    14  H    1.904873   2.989026   0.970471   0.000000
    15  O    3.038825   4.238396   2.852421   2.006840   0.000000
    16  H    3.985305   5.177974   3.789547   2.899647   0.963602
                   16
    16  H    0.000000
 Stoichiometry    C7H6O3
 Framework group  C1[X(C7H6O3)]
 Deg. of freedom    42
 Full point group                 C1      NOp   1
 Largest Abelian subgroup         C1      NOp   1
 Largest concise Abelian subgroup C1      NOp   1
                         Standard orientation:                         
 ---------------------------------------------------------------------
 Center     Atomic      Atomic             Coordinates (Angstroms)
 Number     Number       Type             X           Y           Z
 ---------------------------------------------------------------------
      1          6           0       -0.513492    0.942591   -0.007810
      2          6           0       -1.903220    0.924660   -0.004442
      3          6           0       -2.579902   -0.284842    0.005947
      4          6           0       -1.867673   -1.477928    0.010349
      5          6           0       -0.481459   -1.453040    0.005729
      6          6           0        0.226198   -0.253142   -0.001727
      7          1           0       -2.457965    1.858643   -0.010491
      8          1           0       -3.663817   -0.293841    0.008944
      9          1           0       -2.392301   -2.425988    0.017546
     10          1           0        0.085349   -2.375096    0.009165
     11          6           0        1.730559   -0.401521   -0.003707
     12          8           0        2.237137   -1.496236   -0.027478
     13          8           0        2.551287    0.680964    0.032696
     14          1           0        2.004758    1.482623    0.054232
     15          8           0        0.123724    2.177655   -0.023538
     16          1           0       -0.539268    2.873922    0.041134
 ---------------------------------------------------------------------
 Rotational constants (GHZ):           2.2875582           1.1987165           0.7866649
 Standard basis: 6-311+G(2d,p) (5D, 7F)
 There are   326 symmetry adapted cartesian basis functions of A   symmetry.
 There are   306 symmetry adapted basis functions of A   symmetry.
   306 basis functions,   468 primitive gaussians,   326 cartesian basis functions
    36 alpha electrons       36 beta electrons
       nuclear repulsion energy       499.1779763450 Hartrees.
 NAtoms=   16 NActive=   16 NUniq=   16 SFac= 1.00D+00 NAtFMM=   60 NAOKFM=F Big=F
 Integral buffers will be    131072 words long.
 Raffenetti 2 integral format.
 Two-electron integral symmetry is turned on.
 One-electron integrals computed using PRISM.
 NBasis=   306 RedAO= T EigKep=  2.25D-06  NBF=   306
 NBsUse=   306 1.00D-06 EigRej= -1.00D+00 NBFU=   306
 Initial guess from the checkpoint file:  "acid-1-new.chk"
 B after Tr=     0.000000    0.000000    0.000000
         Rot=    0.999406   -0.000402   -0.000312   -0.034467 Ang=  -3.95 deg.
 ExpMin= 4.38D-02 ExpMax= 8.59D+03 ExpMxC= 1.30D+03 IAcc=3 IRadAn=         5 AccDes= 0.00D+00
 Harris functional with IExCor=  402 and IRadAn=       5 diagonalized for initial guess.
 HarFok:  IExCor=  402 AccDes= 0.00D+00 IRadAn=         5 IDoV= 1 UseB2=F ITyADJ=14
 ICtDFT=  3500011 ScaDFX=  1.000000  1.000000  1.000000  1.000000
 FoFCou: FMM=F IPFlag=           0 FMFlag=      100000 FMFlg1=           0
         NFxFlg=           0 DoJE=T BraDBF=F KetDBF=T FulRan=T
         wScrn=  0.000000 ICntrl=       500 IOpCl=  0 I1Cent=   200000004 NGrid=           0
         NMat0=    1 NMatS0=      1 NMatT0=    0 NMatD0=    1 NMtDS0=    0 NMtDT0=    0
 Petite list used in FoFCou.
 Requested convergence on RMS density matrix=1.00D-08 within  32 cycles.
 Requested convergence on MAX density matrix=1.00D-06.
 Requested convergence on             energy=1.00D-06.
 No special actions if energy rises.
 SCF Done:  E(RB3LYP) =  -496.200128998     A.U. after   13 cycles
            NFock= 13  Conv=0.36D-08     -V/T= 2.0038
 QCSCF skips out because SCF is already converged.
 Calling FoFJK, ICntrl=      2127 FMM=F ISym2X=0 I1Cent= 0 IOpClX= 0 NMat=1 NMatS=1 NMatT=0.
 ***** Axes restored to original set *****
 -------------------------------------------------------------------
 Center     Atomic                   Forces (Hartrees/Bohr)
 Number     Number              X              Y              Z
 -------------------------------------------------------------------
      1        6           0.002575237    0.010871809   -0.000080635
      2        6          -0.002596575   -0.003515312    0.000181304
      3        6          -0.001547031    0.000439364    0.000008882
      4        6          -0.000048760   -0.003037452    0.000029134
      5        6          -0.007628807   -0.003150243    0.000002628
      6        6           0.008495603    0.009093448   -0.000246155
      7        1           0.001027633   -0.000266172   -0.000093390
      8        1           0.000402399    0.000124312    0.000017001
      9        1           0.000527911    0.000509011   -0.000004442
     10        1           0.000803219    0.001452892   -0.000047637
     11        6           0.010198293   -0.008028883    0.000750570
     12        8          -0.001874907    0.002502979   -0.000368468
     13        8          -0.018031701    0.003197387   -0.000351631
     14        1           0.001779973    0.003810511   -0.000011941
     15        8           0.004704770   -0.014572798    0.000230780
     16        1           0.001212742    0.000569146   -0.000016002
 -------------------------------------------------------------------
 Cartesian Forces:  Max     0.018031701 RMS     0.004898801

 GradGradGradGradGradGradGradGradGradGradGradGradGradGradGradGradGradGrad
 Berny optimization.
 Using GEDIIS/GDIIS optimizer.
 FormGI is forming the generalized inverse of G from B-inverse, IUseBI=4.
 Internal  Forces:  Max     0.023855209 RMS     0.005937772
 Search for a local minimum.
 Step number   2 out of a maximum of   81
 All quantities printed in internal units (Hartrees-Bohrs-Radians)
 Mixed Optimization -- RFO/linear search
 Update second derivatives using D2CorX and points    1    2
 DE= -1.27D-02 DEPred=-1.64D-02 R= 7.78D-01
 TightC=F SS=  1.41D+00  RLast= 2.72D-01 DXNew= 5.0454D-01 8.1699D-01
 Trust test= 7.78D-01 RLast= 2.72D-01 DXMaxT set to 5.05D-01
 ITU=  1  0
 Use linear search instead of GDIIS.
     Eigenvalues ---    0.00237   0.00579   0.01295   0.01295   0.01538
     Eigenvalues ---    0.02003   0.02152   0.02153   0.02154   0.02155
     Eigenvalues ---    0.02155   0.02156   0.02157   0.15824   0.16000
     Eigenvalues ---    0.16000   0.16000   0.16000   0.16080   0.21698
     Eigenvalues ---    0.22199   0.22700   0.24566   0.25000   0.25000
     Eigenvalues ---    0.27511   0.30937   0.33711   0.33717   0.33719
     Eigenvalues ---    0.34837   0.40205   0.41422   0.42172   0.44369
     Eigenvalues ---    0.46413   0.46429   0.46482   0.50970   0.55391
     Eigenvalues ---    0.55529   0.79392
 RFO step:  Lambda=-6.71406938D-03 EMin= 2.36907644D-03
 Quartic linear search produced a step of -0.12715.
 Iteration  1 RMS(Cart)=  0.07577023 RMS(Int)=  0.00206056
 Iteration  2 RMS(Cart)=  0.00274541 RMS(Int)=  0.00004482
 Iteration  3 RMS(Cart)=  0.00000334 RMS(Int)=  0.00004477
 Iteration  4 RMS(Cart)=  0.00000000 RMS(Int)=  0.00004477
 Variable       Old X    -DE/DX   Delta X   Delta X   Delta X     New X
                                 (Linear)    (Quad)   (Total)
    R1        2.62643   0.00188   0.00128  -0.00048   0.00081   2.62724
    R2        2.65704  -0.01109  -0.00269  -0.01369  -0.01639   2.64065
    R3        2.62643  -0.00877   0.00965  -0.04495  -0.03530   2.59113
    R4        2.61910   0.00237   0.00210  -0.00120   0.00092   2.62001
    R5        2.05286  -0.00069   0.00320  -0.01055  -0.00735   2.04551
    R6        2.62580   0.00281   0.00142   0.00194   0.00336   2.62916
    R7        2.04838  -0.00039   0.00378  -0.01138  -0.00760   2.04078
    R8        2.62000  -0.00004   0.00201  -0.00522  -0.00321   2.61679
    R9        2.04763  -0.00072   0.00387  -0.01246  -0.00859   2.03905
   R10        2.63248   0.00495   0.00050   0.00754   0.00803   2.64052
   R11        2.04534  -0.00093   0.00418  -0.01386  -0.00967   2.03566
   R12        2.85663  -0.00807   0.00681  -0.04271  -0.03590   2.82073
   R13        2.27991  -0.00299   0.01248  -0.03793  -0.02546   2.25445
   R14        2.56801  -0.00560   0.01708  -0.05883  -0.04175   2.52626
   R15        1.83392   0.00243  -0.00252   0.01074   0.00822   1.84215
   R16        1.82094  -0.00032  -0.00087   0.00190   0.00103   1.82198
    A1        2.11186   0.00061  -0.00222   0.00630   0.00408   2.11594
    A2        2.06001   0.01719   0.00437   0.04734   0.05170   2.11171
    A3        2.11130  -0.01780  -0.00214  -0.05364  -0.05578   2.05552
    A4        2.09379  -0.00059   0.00010  -0.00275  -0.00264   2.09115
    A5        2.09383  -0.00053   0.00003  -0.00316  -0.00313   2.09070
    A6        2.09557   0.00112  -0.00013   0.00591   0.00577   2.10134
    A7        2.09333   0.00000   0.00012   0.00170   0.00183   2.09517
    A8        2.08919  -0.00015   0.00069  -0.00368  -0.00300   2.08619
    A9        2.10066   0.00016  -0.00081   0.00199   0.00117   2.10183
   A10        2.09101  -0.00162   0.00042  -0.00489  -0.00447   2.08654
   A11        2.09799   0.00097  -0.00050   0.00407   0.00357   2.10156
   A12        2.09418   0.00065   0.00008   0.00082   0.00090   2.09508
   A13        2.12162  -0.00128  -0.00345   0.00506   0.00159   2.12321
   A14        2.10400   0.00205  -0.00120   0.01266   0.01148   2.11548
   A15        2.05757  -0.00076   0.00465  -0.01772  -0.01307   2.04450
   A16        2.05476   0.00289   0.00504  -0.00542  -0.00039   2.05436
   A17        2.22309  -0.01890  -0.01634  -0.01881  -0.03515   2.18793
   A18        2.00534   0.01601   0.01130   0.02423   0.03554   2.04089
   A19        2.10243   0.01090  -0.00052   0.03852   0.03779   2.14022
   A20        2.12094  -0.02386  -0.00363  -0.07095  -0.07479   2.04615
   A21        2.05977   0.01296   0.00415   0.03275   0.03669   2.09646
   A22        1.89492   0.00629   0.00200   0.02752   0.02952   1.92445
   A23        1.90275   0.00237   0.00107   0.00950   0.01057   1.91332
    D1        0.00075   0.00001  -0.00002   0.00033   0.00030   0.00105
    D2       -3.14027   0.00005  -0.00027   0.00180   0.00153  -3.13875
    D3        3.13732  -0.00002   0.00060  -0.00049   0.00010   3.13742
    D4       -0.00370   0.00002   0.00036   0.00098   0.00132  -0.00238
    D5        0.00166   0.00000  -0.00018   0.00009  -0.00008   0.00157
    D6       -3.14112   0.00008  -0.00008   0.00248   0.00236  -3.13876
    D7       -3.13476  -0.00007  -0.00082   0.00063  -0.00019  -3.13496
    D8        0.00565   0.00001  -0.00073   0.00302   0.00225   0.00789
    D9        0.07824   0.00003  -0.00069   0.00295   0.00227   0.08052
   D10       -3.06837   0.00006  -0.00006   0.00232   0.00225  -3.06613
   D11       -0.00218  -0.00002   0.00015  -0.00047  -0.00031  -0.00250
   D12        3.14116  -0.00001  -0.00003  -0.00003  -0.00006   3.14111
   D13        3.13884  -0.00005   0.00040  -0.00194  -0.00155   3.13729
   D14       -0.00100  -0.00004   0.00022  -0.00150  -0.00129  -0.00229
   D15        0.00117   0.00000  -0.00007   0.00017   0.00010   0.00127
   D16       -3.14061   0.00001  -0.00012   0.00026   0.00014  -3.14047
   D17        3.14100  -0.00001   0.00011  -0.00027  -0.00016   3.14083
   D18       -0.00078  -0.00001   0.00007  -0.00019  -0.00013  -0.00091
   D19        0.00133   0.00001  -0.00014   0.00027   0.00012   0.00145
   D20        3.14150   0.00000   0.00001  -0.00002  -0.00003   3.14147
   D21       -3.14008   0.00000  -0.00010   0.00018   0.00008  -3.14000
   D22        0.00009   0.00000   0.00006  -0.00011  -0.00006   0.00003
   D23       -0.00270  -0.00001   0.00026  -0.00040  -0.00013  -0.00283
   D24        3.13993  -0.00006   0.00019  -0.00246  -0.00232   3.13761
   D25        3.14028  -0.00001   0.00011  -0.00013  -0.00001   3.14027
   D26       -0.00028  -0.00006   0.00004  -0.00220  -0.00220  -0.00248
   D27       -3.11306   0.00013  -0.00011   0.00698   0.00689  -3.10617
   D28        0.03868  -0.00043  -0.00140  -0.03003  -0.03146   0.00722
   D29        0.02738   0.00020  -0.00002   0.00930   0.00929   0.03667
   D30       -3.10407  -0.00035  -0.00131  -0.02772  -0.02905  -3.13312
   D31       -0.00356   0.00015   0.00045   0.01326   0.01367   0.01011
   D32       -3.13525  -0.00038  -0.00081  -0.02293  -0.02369   3.12425
         Item               Value     Threshold  Converged?
 Maximum Force            0.023855     0.000450     NO 
 RMS     Force            0.005938     0.000300     NO 
 Maximum Displacement     0.357205     0.001800     NO 
 RMS     Displacement     0.075601     0.001200     NO 
 Predicted change in Energy=-3.725597D-03
 GradGradGradGradGradGradGradGradGradGradGradGradGradGradGradGradGradGrad

                          Input orientation:                          
 ---------------------------------------------------------------------
 Center     Atomic      Atomic             Coordinates (Angstroms)
 Number     Number       Type             X           Y           Z
 ---------------------------------------------------------------------
      1          6           0       -0.429437    0.952321   -0.003679
      2          6           0       -1.815081    1.065667   -0.005742
      3          6           0       -2.600189   -0.077048    0.001538
      4          6           0       -2.001987   -1.333155    0.007871
      5          6           0       -0.620757   -1.431791    0.008376
      6          6           0        0.195330   -0.297578    0.004387
      7          1           0       -2.274442    2.045757   -0.014710
      8          1           0       -3.676080    0.016334    0.000356
      9          1           0       -2.607303   -2.226380    0.012507
     10          1           0       -0.129644   -2.390541    0.013322
     11          6           0        1.670408   -0.525943    0.010670
     12          8           0        2.152522   -1.616813   -0.018098
     13          8           0        2.456848    0.555079    0.016971
     14          1           0        1.915950    1.366025    0.025695
     15          8           0        0.370098    2.066187   -0.015651
     16          1           0       -0.176504    2.857849    0.048246
 ---------------------------------------------------------------------
                    Distance matrix (angstroms):
                    1          2          3          4          5
     1  C    0.000000
     2  C    1.390274   0.000000
     3  C    2.402455   1.386450   0.000000
     4  C    2.774247   2.406131   1.391291   0.000000
     5  C    2.391806   2.768376   2.398651   1.384747   0.000000
     6  C    1.397371   2.429052   2.804205   2.429122   1.397302
     7  H    2.144707   1.082437   2.147714   3.389954   3.850785
     8  H    3.378872   2.136458   1.079936   2.150294   3.381142
     9  H    3.853246   3.386078   2.149372   1.079018   2.139568
    10  H    3.356320   3.845313   3.384668   2.150293   1.077227
    11  C    2.568037   3.831726   4.294134   3.760064   2.463737
    12  O    3.642412   4.789335   4.995951   4.164263   2.779571
    13  O    2.913566   4.302394   5.096415   4.842181   3.663246
    14  H    2.381776   3.743234   4.741156   4.757744   3.776633
    15  O    1.371167   2.403362   3.662835   4.145223   3.635687
    16  H    1.922943   2.428943   3.806580   4.571491   4.312767
                    6          7          8          9         10
     6  C    0.000000
     7  H    3.404608   0.000000
     8  H    3.884117   2.466449   0.000000
     9  H    3.402219   4.285171   2.484391   0.000000
    10  H    2.118061   4.927644   4.286072   2.483091   0.000000
    11  C    1.492664   4.709153   5.373927   4.603292   2.591702
    12  O    2.360400   5.745646   6.053107   4.798796   2.409964
    13  O    2.416950   4.960668   6.156567   5.777729   3.920029
    14  H    2.393442   4.245357   5.752661   5.776276   4.277429
    15  O    2.370302   2.644619   4.535825   5.224160   4.484753
    16  H    3.177562   2.250511   4.508163   5.635552   5.248715
                   11         12         13         14         15
    11  C    0.000000
    12  O    1.193004   0.000000
    13  O    1.336838   2.193390   0.000000
    14  H    1.907894   2.992525   0.974823   0.000000
    15  O    2.900110   4.091642   2.576633   1.697526   0.000000
    16  H    3.855197   5.044934   3.498324   2.569905   0.964150
                   16
    16  H    0.000000
 Stoichiometry    C7H6O3
 Framework group  C1[X(C7H6O3)]
 Deg. of freedom    42
 Full point group                 C1      NOp   1
 Largest Abelian subgroup         C1      NOp   1
 Largest concise Abelian subgroup C1      NOp   1
                         Standard orientation:                         
 ---------------------------------------------------------------------
 Center     Atomic      Atomic             Coordinates (Angstroms)
 Number     Number       Type             X           Y           Z
 ---------------------------------------------------------------------
      1          6           0       -0.460965    0.935474   -0.004071
      2          6           0       -1.850253    0.987809   -0.005752
      3          6           0       -2.584374   -0.188316    0.000739
      4          6           0       -1.931538   -1.416921    0.005902
      5          6           0       -0.547308   -1.454751    0.006039
      6          6           0        0.218137   -0.285762    0.002825
      7          1           0       -2.352250    1.946768   -0.013810
      8          1           0       -3.663329   -0.142312   -0.000142
      9          1           0       -2.497008   -2.335892    0.009921
     10          1           0       -0.014528   -2.390992    0.010085
     11          6           0        1.701828   -0.449077    0.008612
     12          8           0        2.231417   -1.517678   -0.021164
     13          8           0        2.439995    0.665462    0.015649
     14          1           0        1.863979    1.451843    0.025161
     15          8           0        0.288836    2.083416   -0.015281
     16          1           0       -0.292018    2.850235    0.049387
 ---------------------------------------------------------------------
 Rotational constants (GHZ):           2.3590353           1.2254921           0.8065693
 Standard basis: 6-311+G(2d,p) (5D, 7F)
 There are   326 symmetry adapted cartesian basis functions of A   symmetry.
 There are   306 symmetry adapted basis functions of A   symmetry.
   306 basis functions,   468 primitive gaussians,   326 cartesian basis functions
    36 alpha electrons       36 beta electrons
       nuclear repulsion energy       504.5341678960 Hartrees.
 NAtoms=   16 NActive=   16 NUniq=   16 SFac= 1.00D+00 NAtFMM=   60 NAOKFM=F Big=F
 Integral buffers will be    131072 words long.
 Raffenetti 2 integral format.
 Two-electron integral symmetry is turned on.
 One-electron integrals computed using PRISM.
 NBasis=   306 RedAO= T EigKep=  2.27D-06  NBF=   306
 NBsUse=   306 1.00D-06 EigRej= -1.00D+00 NBFU=   306
 Initial guess from the checkpoint file:  "acid-1-new.chk"
 B after Tr=     0.000000    0.000000    0.000000
         Rot=    0.999882    0.000134    0.000241    0.015381 Ang=   1.76 deg.
 ExpMin= 4.38D-02 ExpMax= 8.59D+03 ExpMxC= 1.30D+03 IAcc=3 IRadAn=         5 AccDes= 0.00D+00
 Harris functional with IExCor=  402 and IRadAn=       5 diagonalized for initial guess.
 HarFok:  IExCor=  402 AccDes= 0.00D+00 IRadAn=         5 IDoV= 1 UseB2=F ITyADJ=14
 ICtDFT=  3500011 ScaDFX=  1.000000  1.000000  1.000000  1.000000
 FoFCou: FMM=F IPFlag=           0 FMFlag=      100000 FMFlg1=           0
         NFxFlg=           0 DoJE=T BraDBF=F KetDBF=T FulRan=T
         wScrn=  0.000000 ICntrl=       500 IOpCl=  0 I1Cent=   200000004 NGrid=           0
         NMat0=    1 NMatS0=      1 NMatT0=    0 NMatD0=    1 NMtDS0=    0 NMtDT0=    0
 Petite list used in FoFCou.
 Requested convergence on RMS density matrix=1.00D-08 within  32 cycles.
 Requested convergence on MAX density matrix=1.00D-06.
 Requested convergence on             energy=1.00D-06.
 No special actions if energy rises.
 SCF Done:  E(RB3LYP) =  -496.202083731     A.U. after   12 cycles
            NFock= 12  Conv=0.76D-08     -V/T= 2.0034
 QCSCF skips out because SCF is already converged.
 Calling FoFJK, ICntrl=      2127 FMM=F ISym2X=0 I1Cent= 0 IOpClX= 0 NMat=1 NMatS=1 NMatT=0.
 ***** Axes restored to original set *****
 -------------------------------------------------------------------
 Center     Atomic                   Forces (Hartrees/Bohr)
 Number     Number              X              Y              Z
 -------------------------------------------------------------------
      1        6          -0.000777900   -0.003890678    0.000052931
      2        6           0.000859362   -0.000720965    0.000006197
      3        6           0.001631316   -0.000462209    0.000001650
      4        6           0.000902511    0.000627380   -0.000059008
      5        6          -0.002026420    0.002178201    0.000020296
      6        6          -0.007175089   -0.004087004    0.001162483
      7        1          -0.000741331    0.001951875   -0.000040276
      8        1          -0.002247168    0.000256020    0.000022408
      9        1          -0.001519217   -0.001808312   -0.000006000
     10        1           0.001533001   -0.003036281    0.000021683
     11        6          -0.002626863    0.011892076   -0.003950425
     12        8           0.005965742   -0.020317197    0.001297968
     13        8           0.005490465    0.007961298    0.001224625
     14        1           0.003680498   -0.000790373    0.000359020
     15        8          -0.005120248    0.008441363   -0.000037306
     16        1           0.002171340    0.001804806   -0.000076244
 -------------------------------------------------------------------
 Cartesian Forces:  Max     0.020317197 RMS     0.004460179

 GradGradGradGradGradGradGradGradGradGradGradGradGradGradGradGradGradGrad
 Berny optimization.
 Using GEDIIS/GDIIS optimizer.
 FormGI is forming the generalized inverse of G from B-inverse, IUseBI=4.
 Internal  Forces:  Max     0.020957399 RMS     0.004506691
 Search for a local minimum.
 Step number   3 out of a maximum of   81
 All quantities printed in internal units (Hartrees-Bohrs-Radians)
 Mixed Optimization -- RFO/linear search
 Update second derivatives using D2CorX and points    1    2    3
 DE= -1.95D-03 DEPred=-3.73D-03 R= 5.25D-01
 TightC=F SS=  1.41D+00  RLast= 1.63D-01 DXNew= 8.4853D-01 4.8780D-01
 Trust test= 5.25D-01 RLast= 1.63D-01 DXMaxT set to 5.05D-01
 ITU=  1  1  0
 Use linear search instead of GDIIS.
     Eigenvalues ---    0.00237   0.00593   0.01295   0.01296   0.01539
     Eigenvalues ---    0.02004   0.02152   0.02153   0.02154   0.02155
     Eigenvalues ---    0.02155   0.02156   0.02156   0.14772   0.16000
     Eigenvalues ---    0.16000   0.16000   0.16012   0.16102   0.21842
     Eigenvalues ---    0.22221   0.23943   0.24574   0.25000   0.25271
     Eigenvalues ---    0.29260   0.33703   0.33717   0.33719   0.34113
     Eigenvalues ---    0.39464   0.39860   0.41672   0.42205   0.45054
     Eigenvalues ---    0.46410   0.46449   0.47091   0.55274   0.55422
     Eigenvalues ---    0.59195   0.85784
 RFO step:  Lambda=-8.60890146D-04 EMin= 2.37130916D-03
 Quartic linear search produced a step of -0.31844.
 Iteration  1 RMS(Cart)=  0.04803017 RMS(Int)=  0.00136226
 Iteration  2 RMS(Cart)=  0.00176067 RMS(Int)=  0.00003028
 Iteration  3 RMS(Cart)=  0.00000205 RMS(Int)=  0.00003024
 Iteration  4 RMS(Cart)=  0.00000000 RMS(Int)=  0.00003024
 Variable       Old X    -DE/DX   Delta X   Delta X   Delta X     New X
                                 (Linear)    (Quad)   (Total)
    R1        2.62724   0.00085  -0.00026   0.00205   0.00179   2.62903
    R2        2.64065   0.00878   0.00522   0.00427   0.00950   2.65014
    R3        2.59113   0.00660   0.01124  -0.00156   0.00968   2.60081
    R4        2.62001   0.00051  -0.00029   0.00157   0.00128   2.62129
    R5        2.04551   0.00208   0.00234   0.00164   0.00398   2.04949
    R6        2.62916  -0.00028  -0.00107   0.00113   0.00006   2.62922
    R7        2.04078   0.00226   0.00242   0.00204   0.00446   2.04524
    R8        2.61679   0.00026   0.00102  -0.00042   0.00060   2.61740
    R9        2.03905   0.00235   0.00273   0.00181   0.00454   2.04359
   R10        2.64052   0.00230  -0.00256   0.00666   0.00410   2.64462
   R11        2.03566   0.00340   0.00308   0.00334   0.00642   2.04209
   R12        2.82073   0.01255   0.01143   0.01282   0.02425   2.84498
   R13        2.25445   0.02096   0.00811   0.01094   0.01905   2.27350
   R14        2.52626   0.01120   0.01329   0.00513   0.01842   2.54468
   R15        1.84215  -0.00270  -0.00262  -0.00061  -0.00323   1.83892
   R16        1.82198   0.00025  -0.00033   0.00037   0.00004   1.82202
    A1        2.11594  -0.00164  -0.00130  -0.00200  -0.00330   2.11264
    A2        2.11171  -0.00747  -0.01646   0.00680  -0.00966   2.10205
    A3        2.05552   0.00911   0.01776  -0.00481   0.01295   2.06846
    A4        2.09115   0.00176   0.00084   0.00334   0.00418   2.09533
    A5        2.09070  -0.00104   0.00100  -0.00466  -0.00366   2.08704
    A6        2.10134  -0.00072  -0.00184   0.00131  -0.00053   2.10081
    A7        2.09517   0.00037  -0.00058   0.00058  -0.00001   2.09516
    A8        2.08619  -0.00025   0.00096  -0.00146  -0.00050   2.08569
    A9        2.10183  -0.00012  -0.00037   0.00088   0.00051   2.10233
   A10        2.08654  -0.00010   0.00142  -0.00360  -0.00217   2.08436
   A11        2.10156  -0.00020  -0.00114   0.00150   0.00036   2.10193
   A12        2.09508   0.00030  -0.00029   0.00209   0.00181   2.09689
   A13        2.12321   0.00215  -0.00051   0.00561   0.00511   2.12831
   A14        2.11548  -0.00109  -0.00365   0.00297  -0.00068   2.11480
   A15        2.04450  -0.00105   0.00416  -0.00859  -0.00443   2.04008
   A16        2.05436  -0.00253   0.00013  -0.00393  -0.00380   2.05056
   A17        2.18793   0.00988   0.01119   0.00229   0.01348   2.20141
   A18        2.04089  -0.00734  -0.01132   0.00164  -0.00968   2.03120
   A19        2.14022  -0.00840  -0.01203  -0.00286  -0.01499   2.12523
   A20        2.04615   0.01068   0.02381  -0.00973   0.01400   2.06015
   A21        2.09646  -0.00222  -0.01168   0.01310   0.00133   2.09779
   A22        1.92445   0.00483  -0.00940   0.03472   0.02532   1.94977
   A23        1.91332   0.00513  -0.00337   0.02542   0.02206   1.93537
    D1        0.00105  -0.00001  -0.00010   0.00066   0.00057   0.00162
    D2       -3.13875   0.00001  -0.00049   0.00367   0.00317  -3.13557
    D3        3.13742  -0.00007  -0.00003  -0.00253  -0.00252   3.13489
    D4       -0.00238  -0.00005  -0.00042   0.00048   0.00008  -0.00230
    D5        0.00157   0.00002   0.00003  -0.00004  -0.00001   0.00156
    D6       -3.13876   0.00000  -0.00075   0.00479   0.00407  -3.13469
    D7       -3.13496   0.00012   0.00006   0.00301   0.00308  -3.13187
    D8        0.00789   0.00011  -0.00072   0.00784   0.00717   0.01506
    D9        0.08052   0.00004  -0.00072   0.00805   0.00733   0.08784
   D10       -3.06613  -0.00004  -0.00072   0.00498   0.00427  -3.06186
   D11       -0.00250  -0.00002   0.00010  -0.00108  -0.00098  -0.00348
   D12        3.14111   0.00000   0.00002  -0.00018  -0.00016   3.14094
   D13        3.13729  -0.00004   0.00049  -0.00411  -0.00361   3.13368
   D14       -0.00229  -0.00003   0.00041  -0.00321  -0.00279  -0.00509
   D15        0.00127   0.00003  -0.00003   0.00087   0.00083   0.00210
   D16       -3.14047   0.00002  -0.00004   0.00067   0.00063  -3.13984
   D17        3.14083   0.00001   0.00005  -0.00005   0.00000   3.14084
   D18       -0.00091   0.00000   0.00004  -0.00025  -0.00020  -0.00111
   D19        0.00145  -0.00001  -0.00004  -0.00023  -0.00026   0.00118
   D20        3.14147  -0.00001   0.00001  -0.00048  -0.00046   3.14101
   D21       -3.14000   0.00000  -0.00003  -0.00003  -0.00006  -3.14006
   D22        0.00003   0.00000   0.00002  -0.00028  -0.00025  -0.00023
   D23       -0.00283  -0.00001   0.00004  -0.00018  -0.00014  -0.00298
   D24        3.13761   0.00002   0.00074  -0.00460  -0.00381   3.13380
   D25        3.14027  -0.00001   0.00000   0.00005   0.00004   3.14031
   D26       -0.00248   0.00001   0.00070  -0.00437  -0.00363  -0.00610
   D27       -3.10617  -0.00109  -0.00219  -0.10484  -0.10699   3.07003
   D28        0.00722   0.00129   0.01002  -0.08378  -0.07382  -0.06660
   D29        0.03667  -0.00111  -0.00296  -0.10004  -0.10295  -0.06627
   D30       -3.13312   0.00127   0.00925  -0.07898  -0.06978   3.08029
   D31        0.01011  -0.00077  -0.00435  -0.00876  -0.01321  -0.00310
   D32        3.12425   0.00143   0.00754   0.01149   0.01913  -3.13981
         Item               Value     Threshold  Converged?
 Maximum Force            0.020957     0.000450     NO 
 RMS     Force            0.004507     0.000300     NO 
 Maximum Displacement     0.212924     0.001800     NO 
 RMS     Displacement     0.048286     0.001200     NO 
 Predicted change in Energy=-1.144438D-03
 GradGradGradGradGradGradGradGradGradGradGradGradGradGradGradGradGradGrad

                          Input orientation:                          
 ---------------------------------------------------------------------
 Center     Atomic      Atomic             Coordinates (Angstroms)
 Number     Number       Type             X           Y           Z
 ---------------------------------------------------------------------
      1          6           0       -0.439745    0.961306    0.013119
      2          6           0       -1.827184    1.063604    0.006224
      3          6           0       -2.608238   -0.082699   -0.001832
      4          6           0       -2.005149   -1.336508   -0.007218
      5          6           0       -0.623040   -1.426827   -0.001927
      6          6           0        0.193216   -0.290118    0.010146
      7          1           0       -2.291718    2.043619    0.003041
      8          1           0       -3.686778    0.007277   -0.006544
      9          1           0       -2.607997   -2.234272   -0.015137
     10          1           0       -0.125217   -2.385948   -0.005358
     11          6           0        1.678826   -0.533539    0.025244
     12          8           0        2.138140   -1.643330    0.094577
     13          8           0        2.495979    0.535033   -0.035699
     14          1           0        1.995877    1.368239   -0.086853
     15          8           0        0.342878    2.093418    0.013184
     16          1           0       -0.200120    2.886714    0.087093
 ---------------------------------------------------------------------
                    Distance matrix (angstroms):
                    1          2          3          4          5
     1  C    0.000000
     2  C    1.391222   0.000000
     3  C    2.406768   1.387127   0.000000
     4  C    2.780441   2.406738   1.391323   0.000000
     5  C    2.395205   2.766275   2.397434   1.385067   0.000000
     6  C    1.402395   2.431994   2.809147   2.434757   1.399474
     7  H    2.145065   1.084542   2.149753   3.392268   3.850780
     8  H    3.384343   2.138709   1.082297   2.152587   3.382775
     9  H    3.861844   3.389117   2.151615   1.081420   2.142941
    10  H    3.362049   3.846587   3.386791   2.153014   1.080625
    11  C    2.592885   3.852705   4.310789   3.770608   2.469269
    12  O    3.665550   4.801989   4.997296   4.155881   2.771336
    13  O    2.966912   4.355558   5.141572   4.874795   3.684877
    14  H    2.471405   3.836308   4.828076   4.830135   3.831232
    15  O    1.376291   2.402027   3.666714   4.156686   3.650391
    16  H    1.941672   2.444915   3.824180   4.593760   4.335139
                    6          7          8          9         10
     6  C    0.000000
     7  H    3.408999   0.000000
     8  H    3.891410   2.468395   0.000000
     9  H    3.409864   4.289606   2.487646   0.000000
    10  H    2.119939   4.931009   4.290948   2.487428   0.000000
    11  C    1.505496   4.733651   5.392884   4.612047   2.585909
    12  O    2.370874   5.764166   6.055113   4.784043   2.384167
    13  O    2.446568   5.019897   6.205309   5.806897   3.924757
    14  H    2.451356   4.341392   5.843906   5.846272   4.312725
    15  O    2.388233   2.635085   4.537675   5.238070   4.503796
    16  H    3.202015   2.256691   4.522909   5.659755   5.274004
                   11         12         13         14         15
    11  C    0.000000
    12  O    1.203085   0.000000
    13  O    1.346588   2.211399   0.000000
    14  H    1.931281   3.020382   0.973114   0.000000
    15  O    2.947170   4.146430   2.658345   1.807844   0.000000
    16  H    3.902871   5.097924   3.579725   2.675524   0.964172
                   16
    16  H    0.000000
 Stoichiometry    C7H6O3
 Framework group  C1[X(C7H6O3)]
 Deg. of freedom    42
 Full point group                 C1      NOp   1
 Largest Abelian subgroup         C1      NOp   1
 Largest concise Abelian subgroup C1      NOp   1
                         Standard orientation:                         
 ---------------------------------------------------------------------
 Center     Atomic      Atomic             Coordinates (Angstroms)
 Number     Number       Type             X           Y           Z
 ---------------------------------------------------------------------
      1          6           0       -0.477442    0.941708    0.010750
      2          6           0       -1.868353    0.971104    0.011229
      3          6           0       -2.588251   -0.214523   -0.001287
      4          6           0       -1.920278   -1.434890   -0.018531
      5          6           0       -0.535326   -1.452593   -0.020503
      6          6           0        0.220250   -0.274728   -0.004207
      7          1           0       -2.383650    1.925390    0.017282
      8          1           0       -3.670035   -0.181237   -0.000192
      9          1           0       -2.475251   -2.362977   -0.029986
     10          1           0        0.012085   -2.384222   -0.033180
     11          6           0        1.716639   -0.439954    0.002036
     12          8           0        2.233870   -1.524565    0.061228
     13          8           0        2.476306    0.670421   -0.055172
     14          1           0        1.932942    1.476569   -0.097969
     15          8           0        0.244726    2.113301    0.015167
     16          1           0       -0.338737    2.876482    0.097348
 ---------------------------------------------------------------------
 Rotational constants (GHZ):           2.3257915           1.2127126           0.7974594
 Standard basis: 6-311+G(2d,p) (5D, 7F)
 There are   326 symmetry adapted cartesian basis functions of A   symmetry.
 There are   306 symmetry adapted basis functions of A   symmetry.
   306 basis functions,   468 primitive gaussians,   326 cartesian basis functions
    36 alpha electrons       36 beta electrons
       nuclear repulsion energy       501.8043519773 Hartrees.
 NAtoms=   16 NActive=   16 NUniq=   16 SFac= 1.00D+00 NAtFMM=   60 NAOKFM=F Big=F
 Integral buffers will be    131072 words long.
 Raffenetti 2 integral format.
[...]
   zz         0.519610D+02      0.769982D+01      0.856721D+01

 ----------------------------------------------------------------------

 Dipole orientation:
     6          0.51055076          0.81653546          1.74364200
     6         -0.37331241         -0.28118923          3.96290044
     6         -1.91327195         -2.39987491          3.85527377
     6         -2.58305574         -3.42619573          1.52774519
     6         -1.69445774         -2.31832333         -0.67092108
     6         -0.13077967         -0.18768278         -0.62239168
     1          0.14426550          0.53456534          5.77225234
     1         -2.59082890         -3.24207815          5.59373179
     1         -3.78725068         -5.07679663          1.43323274
     1         -2.17992661         -3.07267744         -2.50833845
     6          0.72589315          0.82397612         -3.14148762
     8          0.03980303         -0.10650001         -5.10131827
     8          2.31141356          2.81463736         -3.15815735
     1          2.68868328          3.36021964         -1.44497177
     8          2.02442395          2.93258037          1.83300439
     1          2.46651440          3.33743474          3.55279584

 Electric dipole moment (dipole orientation):
 (Debye = 10**-18 statcoulomb cm , SI units = C m)
                  (au)            (Debye)         (10**-30 SI)
   Tot        0.260679D+01      0.662580D+01      0.221013D+02
   x          0.000000D+00      0.000000D+00      0.000000D+00
   y          0.000000D+00      0.000000D+00      0.000000D+00
   z          0.260679D+01      0.662580D+01      0.221013D+02

 Dipole polarizability, Alpha (dipole orientation).
 (esu units = cm**3 , SI units = C**2 m**2 J**-1)
 Alpha(0;0):
               (au)            (10**-24 esu)      (10**-40 SI)
   iso        0.920700D+02      0.136434D+02      0.151803D+02
   aniso      0.610492D+02      0.904656D+01      0.100657D+02
   xx         0.724730D+02      0.107394D+02      0.119492D+02
   yx         0.273000D+02      0.404545D+01      0.450117D+01
   yy         0.884139D+02      0.131016D+02      0.145775D+02
   zx        -0.433693D+01     -0.642667D+00     -0.715064D+00
   zy        -0.302989D+01     -0.448984D+00     -0.499562D+00
   zz         0.115323D+03      0.170891D+02      0.190142D+02

 ----------------------------------------------------------------------
 1\1\GINC-HRG05\Freq\RB3LYP\6-311+G(2d,p)\C7H6O3\UNKNOWN\25-Jul-2023\0\
 \#N Geom=AllCheck Guess=TCheck SCRF=Check GenChk RB3LYP/6-311+G(2d,p) 
 Freq\\Title Card Required\\0,1\C,-0.4367464339,0.9592208449,-0.0145392
 124\C,-1.8239553133,1.0639665399,-0.0076811156\C,-2.6063938377,-0.0814
 078118,0.0075554297\C,-2.0053950248,-1.3369527731,0.011814618\C,-0.623
 4776569,-1.4305144774,0.0040762769\C,0.1916851788,-0.293856314,-0.0058
 029818\H,-2.28735831,2.0454240543,-0.017970453\H,-3.6857582716,0.01041
 00151,0.0136144102\H,-2.611334434,-2.2337475438,0.0216271437\H,-0.1266
 685115,-2.3917203047,0.0081296566\C,1.6794396552,-0.5298491713,-0.0016
 462723\O,2.1448640724,-1.6400156826,-0.0288814774\O,2.4921454296,0.543
 1861111,0.0409816833\H,1.9750880482,1.366318616,0.0551255174\O,0.34759
 30294,2.0914868052,-0.0402867658\H,-0.1939966197,2.8840200922,0.045943
 5424\\Version=EM64L-G16RevB.01\State=1-A\HF=-496.2031194\RMSD=8.232e-0
 9\RMSF=4.362e-06\ZeroPoint=0.1192951\Thermal=0.1275877\Dipole=-2.08886
 19,1.557605,0.076706\DipoleDeriv=0.5113345,0.6079339,-0.0060217,0.3654
 516,1.0109847,-0.0179452,-0.005292,-0.0297529,0.0845835,-0.2542648,-0.
 3623493,0.0055666,-0.0476498,-0.0810347,-0.0042685,0.0007283,0.0049137
 ,-0.1631777,0.1088918,0.0383175,-0.0023341,-0.0758115,0.2333016,-0.001
 0481,-0.0000164,-0.0036052,-0.1028138,-0.2185358,0.2055214,-0.0008243,
 0.1636243,-0.0669564,-0.0010995,-0.0023355,-0.0004188,-0.1456676,0.218
 7528,-0.0998065,-0.0016593,0.1767426,0.0303885,-0.0011971,0.0004028,0.
 0028679,-0.0772215,-0.6231056,0.1202405,-0.0038143,-0.1200512,-0.27258
 79,0.0007802,0.0017455,-0.01318,-0.0283198,0.0469446,0.0306714,-0.0004
 954,0.0431067,-0.0972405,0.0014325,-0.0000191,0.0039003,0.1486477,-0.0
 740944,0.0122534,0.0011508,0.0162377,0.0761144,0.0002653,0.0013685,-0.
 0013002,0.1301554,0.0127393,-0.0616677,0.0010273,-0.0711949,-0.0275819
 ,0.0015129,0.0012569,0.0014859,0.1432092,0.1187105,0.0310089,-0.000466
 9,0.0130115,0.0378811,0.0007673,-0.0002701,-0.0002599,0.1247749,1.9399
 032,-0.0266569,0.012249,-0.0256317,1.6943256,0.0500428,0.0166994,0.042
 5545,0.3311447,-0.9356798,0.3643098,0.0075365,0.3598115,-1.0682096,-0.
 0220101,-0.0001163,-0.0154921,-0.3743429,-0.892203,-0.4153149,-0.01643
 77,-0.37006,-1.0182846,-0.0247324,-0.0202964,-0.0205515,-0.3667538,0.4
 54351,-0.0501084,0.0031246,-0.0481102,0.3712339,-0.0016663,0.019109,-0
 .0160103,0.2933539,-0.5909501,-0.491876,-0.0116385,-0.4148463,-1.21204
 93,0.0204987,-0.0271401,0.0728243,-0.327352,0.177206,0.0975229,0.01303
 73,0.0353697,0.389715,-0.0013326,0.0141753,-0.0279756,0.3297798\Polar=
 117.8643267,-1.6735139,106.3847007,-0.1586412,0.1213341,51.9609722\Qua
 drupole=-4.4694056,6.3400528,-1.8706472,3.1021612,0.0501267,0.2775314\
 PG=C01 [X(C7H6O3)]\NImag=0\\0.67547760,-0.02262689,0.65664941,-0.00501
 375,-0.00211953,0.15339661,-0.30246704,-0.00911299,0.00163914,0.666050
 00,0.07126332,-0.13068064,0.00007931,-0.01170257,0.73415897,0.00078441
 ,0.00023538,-0.06535477,-0.00296478,-0.00700417,0.11861549,-0.03626160
 ,-0.02605382,0.00053811,-0.19565737,-0.13024175,0.00190341,0.73858848,
 -0.08247013,0.04347128,-0.00014954,-0.06584085,-0.27132771,0.00272367,
 -0.00381983,0.65762703,0.00087366,-0.00024461,0.00110627,0.00130532,0.
 00254481,-0.05769134,-0.00400884,-0.00385192,0.13627756,-0.05196302,0.
 03408583,-0.00015266,0.06256398,0.01240149,-0.00027594,-0.16600189,0.0
 4272887,0.00054340,0.68695052,0.03793493,-0.01957933,-0.00012744,-0.03
 267590,-0.05799786,0.00074698,0.10721324,-0.28976431,0.00068180,0.0444
 0086,0.71325657,-0.00000898,-0.00007960,-0.00398655,-0.00000287,0.0004
 9582,0.00803827,-0.00003441,0.00105721,-0.06221886,-0.00382025,-0.0041
 3463,0.12818979,0.07218316,-0.03481571,-0.00005649,-0.05468430,-0.0238
 9211,0.00047912,-0.02093438,0.08264570,-0.00056042,-0.33849726,-0.0190
 4267,0.00191032,0.70027869,0.01392635,-0.05696353,0.00047862,-0.023775
 22,-0.01225583,0.00005083,0.03594213,0.02463413,-0.00039415,0.04507642
 ,-0.13262470,0.00040581,-0.04506450,0.70146209,-0.00038222,0.00075476,
 0.00161873,0.00036053,0.00013076,-0.00354222,-0.00013384,-0.00047177,0
 .00678853,0.00147919,0.00054286,-0.06375523,-0.00243725,-0.00346554,0.
 14343869,-0.17671301,0.09716612,-0.00028719,-0.01554607,0.02756154,-0.
 00033548,-0.00098243,-0.00650983,0.00004090,-0.03681830,-0.02135135,0.
 00031012,-0.17776214,-0.10907566,0.00138796,0.59974277,0.04024901,-0.2
 4284221,0.00147906,0.07029578,0.02175998,-0.00050200,-0.00345297,-0.06
 139070,0.00057389,-0.06495894,0.03662644,-0.00010777,-0.05677645,-0.25
 009861,0.00144291,0.00810939,0.68276004,-0.00028913,0.00091136,-0.0642
 8169,-0.00034416,0.00016645,0.00863488,0.00014093,0.00021941,-0.003232
 25,0.00032917,0.00003963,0.00730338,0.00095251,0.00171967,-0.06228135,
 0.00013289,-0.00273371,0.13303496,-0.00951178,0.02944726,-0.00028039,-
 0.11073476,0.10554748,-0.00099388,0.01257926,-0.01724213,0.00016918,-0
 .00145779,-0.00329039,0.00006592,-0.00106376,-0.00100756,0.00000318,-0
 .00568923,-0.00080872,0.00004394,0.11291899,-0.00244935,-0.00344878,0.
 00012170,0.10560797,-0.27690831,0.00260280,0.01364404,-0.01974058,0.00
 018593,-0.00431496,-0.00217866,0.00014274,-0.00081073,0.00021479,-0.00
 000973,0.00054811,0.00186197,0.00005605,-0.11366778,0.29618552,-0.0001
 1033,-0.00025370,0.00370123,-0.00085835,0.00297386,-0.03075986,-0.0002
 0928,0.00014503,0.00207940,-0.00000714,0.00012393,0.00660641,0.0000699
 1,0.00002479,-0.00086855,0.00011489,0.00004107,0.00467879,0.00115836,-
 0.00293776,0.02165126,0.00085197,-0.00272401,0.00009122,-0.01343448,0.
 00331614,0.00005600,-0.33414839,0.02293225,0.00168364,-0.00892111,-0.0
 0122412,0.00008525,0.00069013,0.00294888,0.00000974,0.00067271,-0.0001
 0942,-0.00000513,0.00084278,-0.00012358,-0.00003656,0.35438559,-0.0021
 7305,-0.00375487,0.00012747,-0.02706534,0.00605260,0.00012019,0.023471
 83,-0.06270210,0.00001575,0.02902727,0.00373567,-0.00017922,0.00233423
 ,-0.00513210,0.00006389,-0.00041592,-0.00122545,0.00000731,0.00049372,
 0.00104834,-0.00005695,-0.02486003,0.06084962,0.00005327,0.00011259,0.
 00755179,0.00029750,0.00001042,0.00358888,0.00165910,0.00005281,-0.037
 89622,-0.00006841,-0.00003468,0.00413749,-0.00000772,0.00003315,0.0070
 1797,-0.00001114,0.00002256,-0.00104690,-0.00003023,-0.00007581,-0.003
 95389,-0.00187224,-0.00008003,0.02537885,-0.00106359,0.00121479,-0.000
 01056,-0.00031673,0.00287640,0.00002396,0.01189090,0.01315978,-0.00014
 165,-0.14644951,-0.12903517,0.00158538,-0.01371372,-0.02776462,0.00028
 829,-0.00487833,0.00181164,0.00007498,0.00040493,0.00072662,-0.0000056
 3,0.00075580,-0.00060235,-0.00002606,0.15247646,0.00103297,-0.00015999
 ,0.00000415,0.00357332,-0.00316570,0.00003786,-0.01769487,-0.01889133,
 0.00024692,-0.12898245,-0.25089300,0.00224892,0.00291021,0.00617056,-0
 .00004310,0.00110423,0.00140947,0.00002154,-0.00086683,-0.00098546,0.0
 0001277,0.00020147,0.00101187,-0.00003160,0.13889350,0.26437620,-0.000
 00408,-0.00002076,-0.00017937,0.00007374,0.00008543,0.00653912,0.00005
 604,0.00000129,0.00188282,0.00155614,0.00227027,-0.03422878,0.00008163
 ,0.00013811,0.00221579,0.00001487,0.00002220,0.00704859,-0.00000829,0.
 00000077,0.00042872,-0.00002486,-0.00002611,-0.00365390,-0.00174213,-0
 .00246839,0.02481838,-0.00227907,-0.00182469,0.00004365,-0.00075112,-0
 .00102793,-0.00000552,-0.00534088,-0.00023070,0.00008659,-0.00807926,0
 .02731184,-0.00011475,-0.11503215,0.11443552,-0.00054953,0.01252587,-0
 .01575609,0.00012333,0.00002860,0.00008240,0.00000016,-0.00043163,0.00
 124803,-0.00000975,0.00117464,-0.00033300,-0.00003484,0.11908859,-0.00
 368826,-0.00161172,0.00005317,-0.00051144,0.00032091,-0.00000983,-0.00
 051086,0.00133006,0.00004403,-0.00127341,0.00452279,0.00000136,0.11176
 195,-0.28352438,0.00111900,0.01089990,-0.02094985,0.00015476,0.0000646
 0,-0.00002268,-0.00000441,-0.00024613,0.00013903,-0.00000234,0.0003182
 8,0.00065520,-0.00003263,-0.12156350,0.30038666,0.00008808,0.00002224,
 0.00583998,-0.00004912,-0.00002849,-0.00088317,0.00007052,0.00013038,0
 .00711697,0.00022058,-0.00016301,0.00503833,-0.00056789,0.00107128,-0.
 04093826,-0.00022423,0.00033919,0.00494357,-0.00000552,-0.00000570,-0.
 00050305,0.00000339,-0.00000454,-0.00027323,-0.00003466,-0.00003083,-0
 .00416687,0.00049011,-0.00124542,0.02764643,0.00207818,0.03267878,-0.0
 0016819,0.00032114,-0.00127605,0.00005239,0.00154170,0.00305759,-0.000
 03636,0.00681714,-0.00486355,0.00000458,-0.03681903,-0.01692426,-0.000
 13555,-0.15439098,0.00297635,-0.00004706,0.00129777,-0.00108764,-0.000
 00085,0.00002871,0.00010478,-0.00000333,0.00061666,0.00030213,0.000007
 48,0.00019333,0.00247516,0.00003921,0.58327572,0.03547382,0.00988525,-
 0.00014824,0.00174515,-0.00554450,0.00007595,0.00087701,-0.00385280,0.
 00006049,-0.00720386,-0.00589588,0.00015561,-0.02013033,0.01682990,-0.
 00007644,-0.00559389,-0.09961876,0.00019770,0.00135511,-0.00040247,-0.
 00003559,0.00005172,-0.00034643,-0.00000785,-0.00178621,0.00015944,0.0
 0001918,-0.00360870,-0.00334876,-0.00003198,-0.14297091,0.91821634,0.0
 0040427,0.00059401,-0.00001864,-0.00009477,-0.00003961,0.00676218,0.00
 006261,0.00003695,-0.00137636,0.00004772,0.00001914,0.00762650,0.00039
 348,0.00001449,0.00158965,-0.00093491,0.00038221,-0.07833724,0.0000284
 5,-0.00001606,0.00057509,-0.00000415,-0.00001550,-0.00097007,0.0000179
 5,0.00000018,0.00053524,-0.00011636,-0.00010148,-0.00405414,-0.0005644
 5,0.01790649,0.20755095,-0.00825320,-0.01062214,0.00014508,-0.00132660
 ,0.00226282,-0.00007084,-0.00079826,0.00059811,-0.00001253,-0.00000773
 ,0.00171179,-0.00007732,-0.00146083,0.00349127,0.00016564,-0.03025114,
 0.04900271,0.00081761,-0.00092237,0.00033737,-0.00000253,-0.00015435,0
 .00009078,0.00001122,-0.00023496,-0.00014854,0.00001068,-0.00242701,0.
 00156390,0.00004807,-0.20919970,0.22743896,0.00518295,0.21921717,-0.00
 000919,0.00309615,-0.00005352,0.00093403,-0.00025729,0.00007861,-0.000
 60416,0.00094111,-0.00004234,0.00288589,0.00121841,0.00001644,-0.00865
 202,-0.00788878,0.00004495,0.03764214,-0.02043056,-0.00085944,0.000487
 14,0.00001991,0.00000387,-0.00001305,0.00031826,-0.00000250,0.00043974
 ,0.00002730,0.00000390,0.00124750,0.00288692,-0.00004436,0.22741786,-0
 .59974323,-0.01255337,-0.25102898,0.72919874,-0.00007883,-0.00008638,0
 .00257043,0.00007040,-0.00003996,-0.00149902,-0.00002966,-0.00002516,0
 .00009494,-0.00000448,-0.00000200,-0.00067725,-0.00010361,-0.00009757,
 0.00058366,0.00064512,-0.00072275,0.02101684,0.00000329,-0.00000222,-0
 .00033503,0.00000547,0.00000081,0.00012884,0.00000313,0.00000252,0.000
 02675,-0.00002636,0.00001104,-0.00042029,0.00515278,-0.01249404,-0.077
 76508,-0.00560182,0.01763649,0.03380268,-0.00080851,-0.00651697,0.0001
 8307,0.00031841,0.00043005,-0.00000315,-0.00032461,-0.00095462,0.00002
 785,-0.00190189,-0.00143382,0.00011936,-0.00482108,0.00641519,-0.00001
 502,-0.02814096,-0.03465666,-0.00172687,-0.00021921,0.00027501,-0.0000
 1408,-0.00010196,0.00007808,-0.00000877,-0.00088884,0.00002836,0.00001
 340,0.00066360,-0.00002683,-0.00006155,-0.20557139,-0.05666468,-0.0037
 1130,0.03575644,-0.00375873,0.00020141,0.39599106,-0.00832204,-0.01646
 689,0.00011419,0.00199301,0.00254541,-0.00002091,-0.00068740,-0.001356
 95,-0.00001428,-0.00116006,0.00185064,0.00003943,0.00056376,0.00267617
 ,0.00000083,-0.01383921,0.00016161,-0.00055255,-0.00062337,0.00043710,
 0.00000812,-0.00001010,0.00022156,-0.00000889,-0.00023445,0.00002477,0
 .00000010,0.00218091,0.00074307,-0.00008210,-0.10369142,-0.18595550,-0
 .00522163,-0.02342165,-0.10858222,-0.00400094,-0.08898601,0.63710136,-
 0.00002738,-0.00022120,-0.00091762,-0.00005847,0.00001638,-0.00082815,
 0.00000349,0.00001820,0.00023309,0.00001459,-0.00009884,-0.00120729,-0
 .00022155,0.00019935,0.00225749,-0.00054608,-0.00100280,0.01683705,-0.
 00000034,0.00000785,-0.00001726,-0.00000585,0.00000706,0.00011996,-0.0
 0003299,0.00000225,-0.00032094,0.00011391,0.00001817,0.00046002,-0.005
 46626,-0.00436856,-0.05183532,-0.00027332,-0.00392879,0.01497548,0.003
 37682,0.01495678,0.02956582,-0.01073924,-0.01212219,-0.00011648,0.0022
 5071,0.00177399,-0.00009590,-0.00028565,-0.00076934,-0.00002145,-0.000
 15193,0.00093621,-0.00001715,-0.00026256,0.00091207,0.00007575,-0.0031
 0797,-0.00047936,0.00000449,-0.00031833,0.00017929,0.00001026,0.000134
 33,0.00013800,0.00000309,-0.00004827,0.00005277,-0.00000766,0.00060528
 ,0.00024655,-0.00001669,0.02758247,-0.01714434,-0.00000750,-0.00404168
 ,-0.01176170,-0.00053606,-0.18442146,0.21515792,0.00331920,0.17092261,
 0.00056044,0.01165129,-0.00024670,-0.00245624,-0.00259605,0.00005517,0
 .00025024,0.00132485,0.00002784,0.00092160,-0.00064409,-0.00003540,0.0
 0045409,-0.00171733,-0.00000375,0.00095082,0.00233080,0.00006953,0.000
 41415,-0.00015348,-0.00000885,-0.00007055,-0.00014256,0.00000131,0.000
 25494,-0.00002211,-0.00000119,-0.00019546,-0.00007177,0.00000532,0.013
 34168,-0.04003074,-0.00076277,-0.00399353,-0.00002638,-0.00022622,0.17
 301872,-0.33566272,-0.00628948,-0.18162317,0.37696393,-0.00021143,-0.0
 0046956,0.00100762,0.00015647,0.00011670,0.00009111,-0.00001480,-0.000
 04030,0.00013643,-0.00000922,0.00006540,0.00020336,0.00003668,0.000042
 02,-0.00053920,-0.00005920,0.00012528,-0.00074486,-0.00003241,0.000016
 43,-0.00000244,0.00000798,0.00001005,-0.00002398,0.00000301,0.00000410
 ,0.00004832,0.00002001,0.00001728,0.00000836,0.00151714,-0.00100137,-0
 .00657467,-0.00044034,-0.00055777,0.00709414,0.00164847,-0.00559460,-0
 .01282673,-0.00219084,0.00736342,0.01491731,-0.16649770,-0.04502387,0.
 00595257,-0.03814697,-0.05420077,0.00147413,-0.00308838,0.01208958,0.0
 0001423,0.00402704,-0.00643614,0.00012155,-0.00882919,0.00070604,-0.00
 031677,0.02378773,0.00887851,-0.00018556,0.00316890,-0.00064718,-0.000
 08873,-0.00115895,-0.00182910,-0.00001692,0.00036466,-0.00024171,-0.00
 000711,0.00019473,0.00073932,-0.00003448,-0.01577700,-0.01018223,-0.00
 058053,0.00371099,0.00413401,0.00025142,-0.00394683,0.01868274,0.00009
 819,-0.00169769,-0.00167486,-0.00119441,0.41236904,-0.09903120,-0.2126
 0514,0.00297384,-0.01367993,-0.00959190,0.00084415,0.00141128,0.001196
 93,-0.00019725,-0.00305863,-0.00273704,0.00002728,0.00630570,-0.000893
 58,-0.00021311,-0.02117597,-0.04905660,0.00082078,0.00102659,0.0038871
 4,0.00020334,-0.00028639,-0.00031595,0.00002756,-0.00021990,0.00020331
 ,0.00006047,-0.00156098,-0.00121288,0.00006343,-0.01210886,0.00028148,
 -0.00018375,0.00314816,-0.00142782,0.00002726,0.01437551,0.00016531,0.
 00080482,0.00132256,-0.00924059,-0.00045415,-0.12183312,0.62947598,0.0
 0390859,-0.00179744,-0.03892690,0.00043735,0.00024262,0.00894915,-0.00
 010546,0.00027956,0.00736371,0.00034240,0.00009016,-0.00123926,0.00003
 299,-0.00062761,0.00506286,-0.00081763,0.00054925,0.00473938,0.0000514
 3,-0.00006952,-0.00386227,-0.00001727,-0.00001743,-0.00011018,-0.00000
 102,-0.00002395,-0.00095446,-0.00006674,-0.00007719,0.00031346,-0.0002
 7874,-0.00012656,-0.00357146,0.00009728,0.00027909,0.00056003,0.000675
 21,-0.00009909,0.00306838,-0.00144330,0.00022636,-0.00177433,-0.032180
 42,0.03585961,0.02535654,0.01596684,-0.02314948,-0.00250712,0.00156118
 ,-0.00509206,-0.00002792,-0.00077650,0.00062554,0.00003649,-0.00010899
 ,-0.00015576,-0.00012675,0.00072841,-0.00024202,0.00019991,-0.00244851
 ,-0.00432478,-0.00002192,-0.00132398,0.00170040,-0.00002008,-0.0000111
 6,-0.00004093,0.00003039,-0.00009010,0.00016844,0.00001500,-0.00013351
 ,-0.00024922,0.00003418,-0.00199472,-0.00165661,-0.00012347,0.00039322
 ,0.00063952,0.00004779,-0.00158276,0.00239736,-0.00029396,0.00357937,-
 0.00015289,0.00076291,-0.20848038,0.24536517,0.02936531,0.19472160,0.0
 2032927,-0.03664030,-0.00258652,0.00267121,0.00548792,-0.00003468,0.00
 025589,-0.00149889,0.00036310,-0.00057593,0.00110437,-0.00005400,0.002
 20887,-0.00088880,0.00018349,-0.00602041,-0.00129757,-0.00023848,-0.00
 132924,0.00018564,-0.00023952,0.00021692,0.00024254,-0.00001669,-0.000
 05299,0.00007948,-0.00005265,-0.00040513,-0.00024261,0.00000458,0.0005
 6835,-0.00063333,-0.00005931,-0.00043103,0.00064948,0.00001913,-0.0016
 2262,0.00209728,-0.00012121,0.00318075,-0.00196305,0.00035708,0.196838
 77,-0.34812864,-0.03468787,-0.21583268,0.38144651,0.00001385,0.0026624
 5,-0.00312711,0.00003210,0.00024968,-0.00066054,0.00010208,-0.00012581
 ,-0.00066469,-0.00019509,-0.00001958,0.00016969,-0.00000171,0.00040675
 ,0.00135144,0.00056912,0.00009141,0.00168685,-0.00017268,-0.00001746,0
 .00058145,0.00002338,0.00002725,0.00000458,-0.00000200,0.00001665,-0.0
 0003941,0.00004608,0.00005449,-0.00012811,-0.00007279,-0.00012478,-0.0
 0013662,0.00000018,-0.00002126,-0.00015712,-0.00070484,0.00047552,0.00
 043600,0.00104025,-0.00017460,-0.00102044,0.02669284,-0.04066428,-0.00
 497465,-0.02737077,0.03716358,0.00667867\\-0.00000979,-0.00000340,0.00
 000925,0.00000540,0.00000622,-0.00000124,0.00000009,-0.00000306,-0.000
 00118,-0.00000500,0.00000177,0.00000094,0.00000769,0.00000022,-0.00000
 317,-0.00000260,-0.00000321,0.00000128,-0.00000106,-0.00000154,-0.0000
 0088,0.00000150,-0.00000109,0.00000004,0.00000014,0.00000180,0.0000005
 7,-0.00000116,0.00000232,-0.00000141,0.00001118,0.00000572,0.00000007,
 -0.00000075,-0.00000713,0.00000011,-0.00000867,-0.00000582,-0.00000153
 ,0.00000080,0.00000633,0.00000368,0.00000132,-0.00000158,-0.00001020,0
 .00000092,0.00000246,0.00000367\\\@


 A MAN IS EXACTLY AS GREAT AS THE TIDE SURGING
 BENEATH HIM.      - BISMARCK
 Job cpu time:       0 days  2 hours  1 minutes  0.7 seconds.
 Elapsed time:       0 days  0 hours 15 minutes  7.9 seconds.
 File lengths (MBytes):  RWF=    140 Int=      0 D2E=      0 Chk=      9 Scr=      1
 Normal termination of Gaussian 16 at Tue Jul 25 23:01:51 2023.
